 *******************************************************************************
 **                                                                           **
 **                              MOPAC v22.1.1                                **
 **                                                                           **
 *******************************************************************************
 **          Digital Object Identifier (DOI): 10.5281/zenodo.6511958          **
 **    Visit the DOI location for information on how to cite this program.    **
 *******************************************************************************

                              PM6 CALCULATION RESULTS

 *******************************************************************************
 *  CALCULATION DONE:                                Tue May  7 17:20:49 2024  *
 *  PM6        - The PM6 Hamiltonian to be used
 *  MMOK       - APPLY MM CORRECTION TO CONH BARRIER
 *  STATIC     - CALCULATE STATIC FIELD POLARIZABILITIES
 *  POLAR      - CALCULATE FIRST, SECOND AND THIRD-ORDER POLARIZABILITIES
 *  PRECISE    - TIGHTER CRITERIA TO BE USED
 *  XYZ        - CARTESIAN COORDINATE SYSTEM TO BE USED
 *  T=         - A TIME OF 172800.0 SECONDS REQUESTED
 *  DUMP=N     - RESTART FILE WRITTEN EVERY 7200.0 SECONDS REQUESTED
 *  CYCLES=    - DO A MAXIMUM OF 8000 STEPS
 *  ENPART     - ENERGY TO BE PARTITIONED INTO COMPONENTS
 *  PRTXYZ     - PRINT CARTESIAN COORDINATES
 *  DISP       - PRINT DISPERSION AND HYDROGEN BOND ENERGIES
 *  BONDS      - FINAL BOND-ORDER MATRIX TO BE PRINTED
 *  LARGE      - EXPANDED OUTPUT TO BE PRINTED
 *  SUPER      - PRINT SUPERDELOCALIZABILITIES
 *  ALLVEC     - PRINT ALL EIGENVECTORS
 *******************************************************************************
PM6 PRECISE POLAR MMOK XYZ ENPART STATIC SUPER BONDS LARGE PRTXYZ DISP ALLVEC CYCLES = 8000
 emi
 All coordinates are Cartesian
   ATOM   CHEMICAL          X               Y               Z
  NUMBER   SYMBOL      (ANGSTROMS)     (ANGSTROMS)     (ANGSTROMS)
 
     1       N         -0.12500000  *  -0.08000000  *  -0.29600000  *
     2       C          0.60500000  *   1.08900000  *  -0.19900000  *
     3       C          1.87600000  *   0.70400000  *   0.15000000  *
     4       N          1.95300000  *  -0.66500000  *   0.27500000  *
     5       C          0.73900000  *  -1.09700000  *   0.00500000  *
     6       C         -1.55000000  *  -0.20000000  *  -0.58500000  *
     7       H          0.16300000  *   2.05500000  *  -0.39100000  *
     8       H          2.74000000  *   1.33400000  *   0.31100000  *
     9       H          0.42100000  *  -2.13100000  *   0.00100000  *
    10       H         -1.78100000  *   0.43400000  *  -1.44800000  *
    11       C         -2.43900000  *   0.16700000  *   0.60500000  *
    12       H         -1.73100000  *  -1.23400000  *  -0.89300000  *
    13       H         -2.27500000  *   1.20400000  *   0.91300000  *
    14       H         -2.22700000  *  -0.47900000  *   1.46200000  *
    15       H         -3.49400000  *   0.05300000  *   0.33700000  *
 


          CARTESIAN COORDINATES 

    NO.       ATOM           X           Y           Z

     1         N         -0.1250     -0.0800     -0.2960
     2         C          0.6050      1.0890     -0.1990
     3         C          1.8760      0.7040      0.1500
     4         N          1.9530     -0.6650      0.2750
     5         C          0.7390     -1.0970      0.0050
     6         C         -1.5500     -0.2000     -0.5850
     7         H          0.1630      2.0550     -0.3910
     8         H          2.7400      1.3340      0.3110
     9         H          0.4210     -2.1310      0.0010
    10         H         -1.7810      0.4340     -1.4480
    11         C         -2.4390      0.1670      0.6050
    12         H         -1.7310     -1.2340     -0.8930
    13         H         -2.2750      1.2040      0.9130
    14         H         -2.2270     -0.4790      1.4620
    15         H         -3.4940      0.0530      0.3370

 General Reference for PM6:
 "Optimization of Parameters for Semiempirical Methods V: Modification of NDDO Approximations
 and Application to 70 Elements", J. J. P. Stewart, J. Mol. Mod., 13, 1173-1213 (2007)
 URL: https://link.springer.com/article/10.1007/s00894-007-0233-4

           Empirical Formula: C5 H8 N2  =    15 atoms



      MOLECULAR POINT GROUP   :   C1  


      RHF CALCULATION, NO. OF DOUBLY OCCUPIED LEVELS = 19


          Geometry optimization using EF

          DIAGONAL MATRIX USED AS START HESSIAN

 CYCLE:     1 TIME:   0.008 TIME LEFT:  2.00D  GRAD.:   127.647 HEAT:  30.38092
 CYCLE:     2 TIME:   0.016 TIME LEFT:  2.00D  GRAD.:   131.967 HEAT:  30.08154
 CYCLE:     3 TIME:   0.004 TIME LEFT:  2.00D  GRAD.:    59.180 HEAT:  27.15610
 CYCLE:     4 TIME:   0.016 TIME LEFT:  2.00D  GRAD.:    26.624 HEAT:  26.23597
 CYCLE:     5 TIME:   0.008 TIME LEFT:  2.00D  GRAD.:    15.400 HEAT:  25.99245
 CYCLE:     6 TIME:   0.008 TIME LEFT:  2.00D  GRAD.:    13.202 HEAT:  25.92924
 CYCLE:     7 TIME:   0.004 TIME LEFT:  2.00D  GRAD.:    16.124 HEAT:  25.90917
 CYCLE:     8 TIME:   0.008 TIME LEFT:  2.00D  GRAD.:    17.337 HEAT:  25.89542
 CYCLE:     9 TIME:   0.008 TIME LEFT:  2.00D  GRAD.:     6.629 HEAT:  25.82625
 CYCLE:    10 TIME:   0.008 TIME LEFT:  2.00D  GRAD.:     4.152 HEAT:  25.81350
 CYCLE:    11 TIME:   0.004 TIME LEFT:  2.00D  GRAD.:     2.448 HEAT:  25.80156
 CYCLE:    12 TIME:   0.008 TIME LEFT:  2.00D  GRAD.:     3.913 HEAT:  25.79767
 CYCLE:    13 TIME:   0.008 TIME LEFT:  2.00D  GRAD.:     3.073 HEAT:  25.79091
 CYCLE:    14 TIME:   0.012 TIME LEFT:  2.00D  GRAD.:     3.860 HEAT:  25.78882
 CYCLE:    15 TIME:   0.004 TIME LEFT:  2.00D  GRAD.:     3.662 HEAT:  25.78330
 CYCLE:    16 TIME:   0.008 TIME LEFT:  2.00D  GRAD.:     4.233 HEAT:  25.78085
 CYCLE:    17 TIME:   0.004 TIME LEFT:  2.00D  GRAD.:     3.598 HEAT:  25.77755
 CYCLE:    18 TIME:   0.008 TIME LEFT:  2.00D  GRAD.:     2.761 HEAT:  25.77297
 CYCLE:    19 TIME:   0.004 TIME LEFT:  2.00D  GRAD.:     4.158 HEAT:  25.77502
 CYCLE:    20 TIME:   0.004 TIME LEFT:  2.00D  GRAD.:     1.198 HEAT:  25.76782
 CYCLE:    21 TIME:   0.004 TIME LEFT:  2.00D  GRAD.:     2.478 HEAT:  25.76846
 CYCLE:    22 TIME:   0.004 TIME LEFT:  2.00D  GRAD.:     1.646 HEAT:  25.76637
 CYCLE:    23 TIME:   0.004 TIME LEFT:  2.00D  GRAD.:     2.040 HEAT:  25.76675
 CYCLE:    24 TIME:   0.004 TIME LEFT:  2.00D  GRAD.:     1.931 HEAT:  25.76619
 CYCLE:    25 TIME:   0.004 TIME LEFT:  2.00D  GRAD.:     1.170 HEAT:  25.76505
 CYCLE:    26 TIME:   0.008 TIME LEFT:  2.00D  GRAD.:     2.036 HEAT:  25.76526
 CYCLE:    27 TIME:   0.004 TIME LEFT:  2.00D  GRAD.:     1.935 HEAT:  25.76470
 CYCLE:    28 TIME:   0.004 TIME LEFT:  2.00D  GRAD.:     1.932 HEAT:  25.76366
 CYCLE:    29 TIME:   0.008 TIME LEFT:  2.00D  GRAD.:     0.727 HEAT:  25.76163
 CYCLE:    30 TIME:   0.004 TIME LEFT:  2.00D  GRAD.:     0.918 HEAT:  25.76039
 CYCLE:    31 TIME:   0.004 TIME LEFT:  2.00D  GRAD.:     1.224 HEAT:  25.76198
 CYCLE:    32 TIME:   0.004 TIME LEFT:  2.00D  GRAD.:     0.797 HEAT:  25.76338
 CYCLE:    33 TIME:   0.004 TIME LEFT:  2.00D  GRAD.:     0.531 HEAT:  25.76409
 CYCLE:    34 TIME:   0.008 TIME LEFT:  2.00D  GRAD.:     0.584 HEAT:  25.76396
 CYCLE:    35 TIME:   0.004 TIME LEFT:  2.00D  GRAD.:     0.959 HEAT:  25.76245
 CYCLE:    36 TIME:   0.008 TIME LEFT:  2.00D  GRAD.:     1.856 HEAT:  25.76001
 CYCLE:    37 TIME:   0.004 TIME LEFT:  2.00D  GRAD.:     2.112 HEAT:  25.75195
 CYCLE:    38 TIME:   0.008 TIME LEFT:  2.00D  GRAD.:     3.447 HEAT:  25.74424
 CYCLE:    39 TIME:   0.004 TIME LEFT:  2.00D  GRAD.:     1.344 HEAT:  25.73005
 CYCLE:    40 TIME:   0.004 TIME LEFT:  2.00D  GRAD.:     0.976 HEAT:  25.72744
 CYCLE:    41 TIME:   0.008 TIME LEFT:  2.00D  GRAD.:     1.160 HEAT:  25.72371
 CYCLE:    42 TIME:   0.004 TIME LEFT:  2.00D  GRAD.:     0.927 HEAT:  25.71978
 CYCLE:    43 TIME:   0.004 TIME LEFT:  2.00D  GRAD.:     0.353 HEAT:  25.71826
 CYCLE:    44 TIME:   0.008 TIME LEFT:  2.00D  GRAD.:     0.467 HEAT:  25.71754
 CYCLE:    45 TIME:   0.004 TIME LEFT:  2.00D  GRAD.:     0.279 HEAT:  25.71771
 CYCLE:    46 TIME:   0.004 TIME LEFT:  2.00D  GRAD.:     0.130 HEAT:  25.71805
 CYCLE:    47 TIME:   0.004 TIME LEFT:  2.00D  GRAD.:     0.066 HEAT:  25.71813
 CYCLE:    48 TIME:   0.008 TIME LEFT:  2.00D  GRAD.:     1.276 HEAT:  25.72148
 CYCLE:    49 TIME:   0.004 TIME LEFT:  2.00D  GRAD.:     0.061 HEAT:  25.71799
 CYCLE:    50 TIME:   0.004 TIME LEFT:  2.00D  GRAD.:     0.054 HEAT:  25.71792
 CYCLE:    51 TIME:   0.008 TIME LEFT:  2.00D  GRAD.:     0.146 HEAT:  25.71748
 CYCLE:    52 TIME:   0.004 TIME LEFT:  2.00D  GRAD.:     0.088 HEAT:  25.71731
 CYCLE:    53 TIME:   0.004 TIME LEFT:  2.00D  GRAD.:     0.136 HEAT:  25.71725
 CYCLE:    54 TIME:   0.004 TIME LEFT:  2.00D  GRAD.:     0.177 HEAT:  25.71724
 CYCLE:    55 TIME:   0.004 TIME LEFT:  2.00D  GRAD.:     0.175 HEAT:  25.71729
 CYCLE:    56 TIME:   0.004 TIME LEFT:  2.00D  GRAD.:     0.089 HEAT:  25.71746
 CYCLE:    57 TIME:   0.004 TIME LEFT:  2.00D  GRAD.:     0.069 HEAT:  25.71771
 CYCLE:    58 TIME:   0.008 TIME LEFT:  2.00D  GRAD.:     0.038 HEAT:  25.71760

     GRADIENT =  0.03818 IS LESS THAN CUTOFF =  0.05000



 -------------------------------------------------------------------------------
 PM6 PRECISE POLAR MMOK XYZ ENPART STATIC SUPER BONDS LARGE PRTXYZ DISP ALLVEC CYCLES = 8000
 emi
 All coordinates are Cartesian


     GEOMETRY OPTIMISED USING EIGENVECTOR FOLLOWING (EF).     
     SCF FIELD WAS ACHIEVED                                   


                              PM6 CALCULATION
                                                       MOPAC v22.1.1 MacOS
                                                       Tue May  7 17:20:49 2024




          FINAL HEAT OF FORMATION =         25.71760 KCAL/MOL =     107.60242 KJ/MOL

          TOTAL ENERGY            =     -24897.96353 KCAL/MOL = ELECTRONIC ENERGY + CORE-CORE REPULSION
          ENERGY OF ATOMS         =      24924.16414 KCAL/MOL
                              SUM =         26.20061 KCAL/MOL
          DISPERSION ENERGY       =          0.00000 KCAL/MOL
          MM CORRECTION FOR >N-   =         -0.48301 KCAL/MOL
                              SUM =         25.71760 KCAL/MOL = FINAL HEAT OF FORMATION



          TOTAL ENERGY            =      -1079.67789 EV
          ELECTRONIC ENERGY       =      -4772.31108 EV 
          CORE-CORE REPULSION     =       3692.63320 EV
          COSMO AREA              =        140.12 SQUARE ANGSTROMS
          COSMO VOLUME            =        132.01 CUBIC ANGSTROMS

          GRADIENT NORM           =          0.03818          =       0.00986 PER ATOM
          IONIZATION POTENTIAL    =          9.267320 EV
          HOMO LUMO ENERGIES (EV) =         -9.267  0.762
          NO. OF FILLED LEVELS    =         19
          MOLECULAR WEIGHT        =         96.1316         POINT GROUP:  C1  

          MOLECULAR DIMENSIONS (Angstroms)

            Atom       Atom       Distance
            H    15    H     8     6.42106
            H     9    H     7     4.21102
            H    12    H    13     2.52588


          SCF CALCULATIONS        =         72
 
          WALL-CLOCK TIME         =      0.352 SECONDS
          COMPUTATION TIME        =      2.497 SECONDS




   ATOM   CHEMICAL          X               Y               Z
  NUMBER   SYMBOL      (ANGSTROMS)     (ANGSTROMS)     (ANGSTROMS)
 
     1       N         -0.13608647  *  -0.05779576  *  -0.32380994  *
     2       C          0.63767623  *   1.11199629  *  -0.29320943  *
     3       C          1.91339576  *   0.71898832  *   0.12008446  *
     4       N          1.93921687  *  -0.65548839  *   0.35832430  *
     5       C          0.69321176  *  -1.11468041  *   0.09852236  *
     6       C         -1.57670934  *  -0.13353096  *  -0.62868352  *
     7       H          0.25926580  *   2.07812594  *  -0.55735430  *
     8       H          2.79206463  *   1.32436015  *   0.25441859  *
     9       H          0.36551110  *  -2.13752892  *   0.18120518  *
    10       H         -1.82747601  *   0.63580372  *  -1.39598695  *
    11       C         -2.42207551  *   0.07069186  *   0.62588344  *
    12       H         -1.79591535  *  -1.12560798  *  -1.08843971  *
    13       H         -2.23379759  *   1.04833345  *   1.08973941  *
    14       H         -2.20851702  *  -0.68763601  *   1.39104561  *
    15       H         -3.49247666  *   0.01483278  *   0.39477297  *

                             CARTESIAN COORDINATES

   1    N       -0.136086466    -0.057795762    -0.323809945
   2    C        0.637676235     1.111996289    -0.293209426
   3    C        1.913395762     0.718988315     0.120084463
   4    N        1.939216872    -0.655488391     0.358324298
   5    C        0.693211761    -1.114680406     0.098522362
   6    C       -1.576709345    -0.133530965    -0.628683522
   7    H        0.259265804     2.078125940    -0.557354303
   8    H        2.792064625     1.324360155     0.254418586
   9    H        0.365511103    -2.137528924     0.181205178
  10    H       -1.827476006     0.635803717    -1.395986948
  11    C       -2.422075510     0.070691861     0.625883441
  12    H       -1.795915351    -1.125607981    -1.088439714
  13    H       -2.233797591     1.048333452     1.089739412
  14    H       -2.208517018    -0.687636014     1.391045608
  15    H       -3.492476662     0.014832781     0.394772972


           Empirical Formula: C5 H8 N2  =    15 atoms



      MOLECULAR POINT GROUP   :   C1  


                EIGENVECTORS  


   Root No.       1         2         3         4         5         6         7         8

                 1 A       2 A       3 A       4 A       5 A       6 A       7 A       8 A   

               -33.881   -29.976   -26.763   -25.413   -22.800   -20.772   -20.287   -17.848
  
  S   N    1    0.5759    0.4247   -0.3128   -0.1286    0.0131   -0.0654   -0.2462   -0.0787
  Px  N    1    0.1312   -0.2193   -0.1375    0.0301    0.3035   -0.0106    0.0515    0.4160
  Py  N    1    0.0005    0.0157   -0.0898    0.3167   -0.0165    0.4181   -0.1232   -0.0394
  Pz  N    1    0.0444   -0.0443    0.0092   -0.0322    0.1450   -0.0830   -0.0073    0.0130
  S   C    2    0.3091    0.0136   -0.2280    0.4701    0.1178    0.2122    0.2963   -0.0579
  Px  C    2   -0.0088   -0.1597    0.0797    0.1020   -0.0235   -0.3119    0.1881    0.0987
  Py  C    2   -0.1874   -0.0102    0.0713    0.0304   -0.0448    0.0353    0.2347   -0.2863
  Pz  C    2    0.0286   -0.0390    0.0198    0.0254    0.0186   -0.0958   -0.0005    0.0291
  S   C    3    0.2675   -0.2488    0.0758    0.4160   -0.1663   -0.4033    0.0785   -0.1007
  Px  C    3   -0.1211    0.0152    0.0809   -0.0907   -0.1295   -0.1444   -0.1593   -0.2077
  Py  C    3   -0.1186    0.1268   -0.1245    0.1003    0.0957   -0.0946    0.2899   -0.1101
  Pz  C    3   -0.0131   -0.0165    0.0456   -0.0408   -0.0461   -0.0244   -0.0970   -0.0615
  S   N    4    0.3751   -0.4420    0.3688   -0.1011   -0.2306    0.2347   -0.1946   -0.1665
  Px  N    4   -0.1732    0.1131   -0.0568    0.1410   -0.1013   -0.1416   -0.1542   -0.0943
  Py  N    4    0.0926   -0.0843    0.0258    0.2064   -0.1326   -0.2576   -0.2164    0.0867
  Pz  N    4   -0.0628    0.0455   -0.0169    0.0048    0.0004    0.0047   -0.0111   -0.0678
  S   C    5    0.3721   -0.1179    0.0786   -0.4296    0.1934   -0.0525    0.3543   -0.0813
  Px  C    5    0.0225   -0.2225    0.1622    0.0357   -0.0769    0.3539   -0.0209   -0.0089
  Py  C    5    0.1957   -0.0257   -0.0543    0.0411    0.0231   -0.0506   -0.2359    0.2882
  Pz  C    5   -0.0279   -0.0532    0.0627    0.0084   -0.0079    0.1044    0.0201   -0.0995
  S   C    6    0.1455    0.4435    0.3240    0.0229   -0.3926    0.0462    0.1815    0.1274
  Px  C    6    0.0962    0.0932   -0.1856   -0.0916   -0.1260   -0.0306   -0.1480   -0.3692
  Py  C    6    0.0050    0.0152   -0.0078    0.0800    0.0179    0.1659   -0.0806   -0.0855
  Pz  C    6    0.0259    0.0552    0.0837    0.0214    0.1963   -0.0626   -0.1321   -0.2231
  S   H    7    0.0696    0.0310   -0.0838    0.2142    0.0338    0.1947    0.2354   -0.2150
  S   H    8    0.0524   -0.0735    0.0331    0.1809   -0.1063   -0.2896    0.0535   -0.1984
  S   H    9    0.0848   -0.0120    0.0428   -0.2160    0.0897   -0.0554    0.3125   -0.2122
  S   H   10    0.0498    0.1700    0.1348    0.0468   -0.2226    0.1220    0.1315    0.1728
  S   C   11    0.0499    0.2576    0.5066    0.1750    0.4091   -0.0283   -0.0974   -0.0311
  Px  C   11    0.0292    0.0685    0.0110   -0.0152   -0.1101    0.0047    0.0113   -0.1305
  Py  C   11   -0.0027   -0.0107   -0.0151    0.0200    0.0236    0.0565   -0.0414   -0.0573
  Pz  C   11   -0.0170   -0.0734   -0.0593   -0.0029    0.1726   -0.0395   -0.1214   -0.1954
  S   H   12    0.0507    0.1668    0.1515   -0.0224   -0.2096   -0.0476    0.1849    0.2146
  S   H   13    0.0234    0.1049    0.2092    0.0888    0.2272    0.0104   -0.0935   -0.1133
  S   H   14    0.0235    0.1038    0.2146    0.0668    0.2322   -0.0532   -0.0730   -0.0916
  S   H   15    0.0131    0.0950    0.2325    0.0872    0.2255   -0.0125   -0.0353    0.0936


   Root No.       9        10        11        12        13        14        15        16

                 9 A      10 A      11 A      12 A      13 A      14 A      15 A      16 A   

               -16.026   -15.742   -14.744   -14.622   -14.098   -13.703   -13.411   -12.738
  
  S   N    1    0.0314   -0.0599   -0.0155   -0.0219    0.1284    0.0009   -0.0420    0.0135
  Px  N    1    0.1099   -0.0835   -0.1529    0.0235   -0.0251    0.1980    0.2600    0.0575
  Py  N    1    0.1102    0.0852   -0.1818   -0.3887   -0.0390   -0.0192    0.0347    0.1261
  Pz  N    1   -0.1399    0.4324   -0.2202    0.1123    0.0779   -0.1453    0.1042   -0.0035
  S   C    2   -0.1175   -0.0427   -0.0402    0.0524   -0.0908   -0.0147   -0.0325    0.0357
  Px  C    2   -0.0221    0.0727    0.3818   -0.0683   -0.0404   -0.0729   -0.2381   -0.0807
  Py  C    2   -0.1880   -0.0978   -0.0175    0.4677    0.0913   -0.0052    0.0305   -0.1220
  Pz  C    2   -0.0527    0.2934   -0.0304   -0.0599    0.0391   -0.2785    0.0101    0.0107
  S   C    3    0.1086    0.0322    0.0210   -0.1139    0.0183   -0.0145   -0.0209   -0.0023
  Px  C    3    0.1840   -0.1599   -0.2557    0.0127    0.2539    0.2632    0.2564    0.0575
  Py  C    3    0.0577    0.0738    0.1457   -0.1524    0.4187    0.0137    0.0972    0.0511
  Pz  C    3   -0.0120    0.1212   -0.2132    0.0567    0.0655   -0.2438    0.1618    0.0149
  S   N    4   -0.0811   -0.0985   -0.0661    0.0727    0.0183    0.0020   -0.0284    0.0414
  Px  N    4    0.0540   -0.1539   -0.2182    0.0414   -0.2039    0.1044   -0.0458    0.0568
  Py  N    4   -0.0076    0.0086   -0.1723    0.1672   -0.3455   -0.1021   -0.0208   -0.0831
  Pz  N    4   -0.0468    0.1671   -0.1776    0.0101    0.0862   -0.3442    0.1297    0.0315
  S   C    5    0.1233    0.0248   -0.0581    0.0058   -0.0135    0.0293    0.0544   -0.0449
  Px  C    5   -0.0340   -0.0248    0.2431   -0.1886    0.2555    0.0857   -0.0212    0.0543
  Py  C    5   -0.1825    0.0725    0.1763    0.3050    0.3093    0.0269    0.1597   -0.0852
  Pz  C    5   -0.0659    0.2595   -0.1275   -0.0787    0.0950   -0.3054    0.0755    0.0259
  S   C    6   -0.0301    0.1030    0.0313   -0.0132   -0.0184    0.0336    0.0131   -0.0019
  Px  C    6   -0.0496   -0.1157    0.2545   -0.0481    0.0099   -0.2299   -0.1500   -0.0370
  Py  C    6    0.4528    0.2270    0.0649    0.1089   -0.0111    0.0588   -0.0212   -0.4948
  Pz  C    6   -0.2193    0.3198   -0.0679   -0.0155    0.0263    0.3462   -0.3073    0.0610
  S   H    7   -0.1559   -0.1477   -0.1256    0.3666    0.0034    0.0587    0.0711   -0.0500
  S   H    8    0.1790   -0.0319   -0.0987   -0.1130    0.3324    0.1336    0.2018    0.0590
  S   H    9    0.1831   -0.0163   -0.2171   -0.1745   -0.2840   -0.0390   -0.0668    0.0308
  S   H   10    0.3114    0.0233    0.0379    0.0751   -0.0336   -0.0956    0.1960   -0.3136
  S   C   11    0.0095   -0.0309    0.0124   -0.0040   -0.0001    0.0519   -0.0273   -0.0005
  Px  C   11   -0.1624    0.3659    0.1780   -0.0430   -0.2672    0.3759    0.3193    0.0340
  Py  C   11    0.4019    0.1302    0.2127    0.3247   -0.0643   -0.0809   -0.0133    0.4981
  Pz  C   11   -0.0551   -0.2365    0.2749   -0.1050   -0.1716   -0.2622    0.4248   -0.0599
  S   H   12   -0.2226   -0.1670   -0.0484   -0.0707   -0.0231   -0.1019    0.1478    0.3505
  S   H   13    0.2063    0.0366    0.2373    0.1660   -0.1265   -0.0621    0.1554    0.3279
  S   H   14   -0.2241   -0.1374    0.0593   -0.2154   -0.0946   -0.0165    0.2616   -0.2938
  S   H   15    0.1061   -0.2310   -0.1650    0.0317    0.2195   -0.2051   -0.3151   -0.0360


   Root No.      17        18        19        20        21        22        23        24

                17 A      18 A      19 A      20 A      21 A      22 A      23 A      24 A   

               -10.408   -10.175    -9.267     0.762     1.406     1.734     3.396     3.590
  
  S   N    1    0.1041   -0.0102    0.0082    0.0947   -0.4958   -0.0136   -0.0325    0.0382
  Px  N    1    0.1394   -0.1319    0.0616    0.0841    0.1338    0.0137   -0.0810    0.2764
  Py  N    1   -0.1460    0.0860   -0.0402   -0.0759   -0.0080   -0.0012    0.0070   -0.1811
  Pz  N    1    0.0086    0.5739   -0.2524   -0.4457   -0.0834   -0.0503   -0.1696    0.0456
  S   C    2    0.0791    0.0102   -0.0007   -0.0292    0.1832    0.0023    0.0048    0.0680
  Px  C    2    0.2241   -0.0762   -0.1474   -0.1110   -0.2377    0.0771   -0.1165    0.2077
  Py  C    2   -0.0494    0.0381    0.0883    0.1351   -0.2579   -0.0525   -0.0112   -0.0641
  Pz  C    2    0.0532    0.3245    0.5267    0.5339    0.0853   -0.2945    0.0363    0.0928
  S   C    3   -0.0929   -0.0100    0.0033    0.0103   -0.0571   -0.0017   -0.0036    0.0443
  Px  C    3   -0.1285    0.0607   -0.1442    0.0767    0.0350   -0.1554   -0.0651    0.2109
  Py  C    3    0.2188   -0.0202    0.0859   -0.0591    0.0348    0.1008    0.1032   -0.3890
  Pz  C    3   -0.0371   -0.2488    0.5363   -0.3049   -0.0648    0.5724   -0.0551    0.1174
  S   N    4    0.4237    0.0369   -0.0070   -0.0057    0.0325    0.0027    0.0782   -0.2729
  Px  N    4    0.5482    0.2081    0.0109    0.0306    0.1059    0.1571   -0.0648    0.2626
  Py  N    4   -0.3955   -0.1354   -0.0070   -0.0202   -0.0591   -0.0963    0.0252   -0.1652
  Pz  N    4    0.2735   -0.5572   -0.0838   -0.1974    0.0287   -0.5666   -0.0521    0.0833
  S   C    5   -0.1406   -0.0099   -0.0028   -0.0301    0.1980    0.0105    0.0086    0.0437
  Px  C    5   -0.1923    0.0228    0.1487   -0.0953   -0.2587   -0.1236   -0.1697    0.4379
  Py  C    5   -0.0489   -0.0242   -0.0946    0.0412    0.2620    0.0809    0.0562   -0.1061
  Pz  C    5   -0.0319   -0.1628   -0.5108    0.5126   -0.0412    0.4021    0.0182    0.1725
  S   C    6   -0.0205    0.0067   -0.0051   -0.0676    0.2041    0.0003    0.2340    0.1733
  Px  C    6   -0.1135    0.0276   -0.0128   -0.0712    0.5361    0.0197   -0.3621    0.1343
  Py  C    6    0.0613   -0.0125    0.0107   -0.0170    0.0285   -0.0049    0.0943   -0.0405
  Pz  C    6   -0.0352   -0.1239    0.0362   -0.0912    0.1062   -0.0100    0.5010    0.2468
  S   H    7   -0.0750   -0.0089    0.0006    0.0069   -0.0470   -0.0023   -0.0460    0.1528
  S   H    8   -0.0688   -0.0016    0.0004   -0.0109    0.0682    0.0004    0.0214   -0.0427
  S   H    9   -0.0270   -0.0042    0.0030    0.0093   -0.0660   -0.0029   -0.0063   -0.0457
  S   H   10    0.0692    0.0806   -0.0275   -0.0463   -0.0198   -0.0056    0.0209    0.1339
  S   C   11    0.0091   -0.0629    0.0260    0.0653    0.0090    0.0094   -0.2309   -0.0685
  Px  C   11    0.0529   -0.1180    0.0451    0.0738    0.0128    0.0108   -0.3418   -0.0832
  Py  C   11   -0.0145    0.0133   -0.0194   -0.0182   -0.0051    0.0024    0.0827    0.0178
  Pz  C   11   -0.0014    0.1327   -0.0474   -0.1091   -0.0283   -0.0182    0.4948    0.1685
  S   H   12   -0.0358    0.0702   -0.0285   -0.0457   -0.0185   -0.0078    0.0494   -0.0446
  S   H   13   -0.0013    0.0093   -0.0080    0.0129   -0.0247   -0.0004   -0.0620   -0.0270
  S   H   14    0.0244    0.0174    0.0011    0.0125   -0.0244    0.0022   -0.0563   -0.0554
  S   H   15   -0.0401    0.0431   -0.0165   -0.0307    0.0839    0.0008   -0.0665    0.0303


   Root No.      25        26        27        28        29        30        31        32

                25 A      26 A      27 A      28 A      29 A      30 A      31 A      32 A   

                 3.978     4.535     4.810     5.013     5.223     5.228     5.302     5.628
  
  S   N    1    0.0431    0.0408    0.0177    0.0040    0.0202   -0.0068   -0.0004    0.0174
  Px  N    1    0.1886    0.2728    0.1463   -0.1171    0.0024   -0.1972   -0.0236    0.1266
  Py  N    1    0.4088    0.0664   -0.2650    0.2130   -0.0014   -0.0102    0.0814    0.2995
  Pz  N    1   -0.0363    0.0370    0.0516   -0.0909    0.0092   -0.0576   -0.0211   -0.0167
  S   C    2   -0.1108   -0.0315   -0.1073   -0.1599   -0.0159    0.4379   -0.0441   -0.3853
  Px  C    2    0.3729    0.1522   -0.1646   -0.1004   -0.0266    0.2814   -0.0986    0.2521
  Py  C    2    0.3114    0.1081   -0.1305    0.1473    0.0190   -0.0302    0.1117   -0.1222
  Pz  C    2    0.0629    0.0376   -0.0124   -0.0404   -0.0126    0.0839   -0.0399    0.0941
  S   C    3   -0.1376   -0.2437    0.0668    0.2492    0.0236   -0.3377    0.1069    0.0313
  Px  C    3    0.1536    0.0713   -0.1413   -0.1153   -0.0233    0.3120   -0.0503   -0.0240
  Py  C    3    0.0702    0.2457    0.0033    0.0048    0.0113   -0.1824    0.1058   -0.0955
  Pz  C    3    0.0247   -0.0262   -0.0410   -0.0364   -0.0080    0.1148   -0.0347    0.0073
  S   N    4   -0.0079    0.1558    0.0548   -0.0871    0.0014    0.0478   -0.0430    0.0674
  Px  N    4    0.1299   -0.1527   -0.1671    0.1914    0.0005   -0.1727    0.1579   -0.1970
  Py  N    4    0.1462    0.2508   -0.0696   -0.0650    0.0023    0.0065    0.0700   -0.1658
  Pz  N    4    0.0098   -0.0874   -0.0414    0.0605    0.0003   -0.0481    0.0338   -0.0233
  S   C    5    0.1352   -0.2961   -0.3005    0.3141    0.0054    0.0955    0.1147    0.0544
  Px  C    5    0.0173    0.0065    0.0037   -0.0168    0.0006   -0.1957    0.1121   -0.3538
  Py  C    5    0.2197    0.0338   -0.1662    0.0703   -0.0222   -0.1596    0.1166   -0.1969
  Pz  C    5   -0.0272    0.0086    0.0497   -0.0099    0.0017   -0.0256    0.0053   -0.0667
  S   C    6    0.0617   -0.0157   -0.2385   -0.3604    0.2119   -0.2187   -0.0306    0.0823
  Px  C    6    0.1232    0.2091    0.1594    0.0142   -0.1326   -0.0783   -0.0022    0.0615
  Py  C    6    0.3415   -0.3067    0.3178   -0.0938   -0.0277   -0.0263   -0.2598   -0.1419
  Pz  C    6    0.0302    0.2014    0.1636    0.1945   -0.1769    0.0593    0.0551    0.0221
  S   H    7   -0.0515   -0.0215    0.1598   -0.0563   -0.0055   -0.2281   -0.1040    0.4993
  S   H    8   -0.0987    0.0245    0.0867   -0.1472   -0.0076    0.1447   -0.1224    0.0484
  S   H    9    0.1322    0.3305    0.0844   -0.2113   -0.0147   -0.2763    0.0410   -0.2878
  S   H   10   -0.2803    0.4182    0.0728    0.4019   -0.2321    0.1746    0.1998    0.0461
  S   C   11   -0.0112   -0.0035    0.0096    0.0243   -0.0604    0.0184    0.0018   -0.0110
  Px  C   11    0.0002    0.0687    0.1505    0.1786    0.4718    0.1065    0.0005   -0.0269
  Py  C   11    0.0573   -0.0936    0.1781   -0.1900    0.0651    0.1231    0.5335    0.0916
  Pz  C   11    0.0323    0.0633    0.0162    0.0723    0.3239    0.0077   -0.0943   -0.0212
  S   H   12    0.3566   -0.1591    0.5064    0.2235   -0.2224    0.1186   -0.1552   -0.1235
  S   H   13   -0.0895    0.0625   -0.2527    0.0917   -0.2416   -0.1535   -0.4564   -0.0601
  S   H   14    0.0457   -0.1661    0.0799   -0.2725   -0.2374    0.0452    0.4508    0.0889
  S   H   15    0.0340    0.1012    0.1692    0.1630    0.5898    0.0915    0.0052   -0.0132


   Root No.      33        34        35        36

                33 A      34 A      35 A      36 A   

                 5.838     6.017     6.166     6.377
  
  S   N    1   -0.0599    0.0395   -0.0037    0.0173
  Px  N    1   -0.3042    0.2193   -0.0254   -0.0520
  Py  N    1    0.0901    0.1266    0.0051    0.0159
  Pz  N    1   -0.0962    0.0369    0.0214   -0.0150
  S   C    2   -0.0101    0.0123   -0.0085   -0.1097
  Px  C    2    0.1337   -0.0896    0.0044    0.0235
  Py  C    2   -0.1865    0.4625   -0.0275   -0.0375
  Pz  C    2    0.0663   -0.0985    0.0020    0.0119
  S   C    3   -0.0040    0.1162   -0.0058   -0.3928
  Px  C    3    0.0316   -0.2383   -0.0023   -0.4412
  Py  C    3   -0.2854   -0.3909    0.0018   -0.0584
  Pz  C    3    0.0569    0.0004    0.0004   -0.1085
  S   N    4   -0.0815   -0.0372   -0.0007   -0.0280
  Px  N    4    0.0024   -0.1462    0.0051    0.2524
  Py  N    4   -0.2888   -0.3443    0.0007    0.2535
  Pz  N    4    0.0505    0.0181    0.0030    0.0257
  S   C    5   -0.1434   -0.1522   -0.0003    0.1824
  Px  C    5   -0.0545   -0.1767    0.0011    0.1898
  Py  C    5    0.5079   -0.0297    0.0214    0.0033
  Pz  C    5   -0.1046   -0.0418   -0.0077    0.0497
  S   C    6   -0.1494    0.1028   -0.0177   -0.0292
  Px  C    6   -0.1511    0.1061    0.0396   -0.0311
  Py  C    6   -0.0530   -0.0411   -0.0184   -0.0095
  Pz  C    6   -0.0087    0.0181   -0.1047   -0.0007
  S   H    7    0.2074   -0.4010    0.0335    0.1043
  S   H    8    0.1288    0.2954    0.0053    0.6316
  S   H    9    0.4878    0.0364    0.0221   -0.0690
  S   H   10    0.0716    0.0008   -0.0120    0.0123
  S   C   11   -0.0228    0.0164    0.6227   -0.0067
  Px  C   11    0.0600   -0.0353   -0.0902    0.0097
  Py  C   11    0.0166    0.0103    0.0389    0.0035
  Pz  C   11   -0.0021    0.0011    0.2185   -0.0031
  S   H   12    0.0085   -0.0584   -0.0126    0.0090
  S   H   13   -0.0116   -0.0086   -0.4477   -0.0000
  S   H   14    0.0086    0.0022   -0.4436    0.0074
  S   H   15    0.0573   -0.0324   -0.3741    0.0088

           SUPERDELOCALIZABILITIES

 Mulliken electronegativity:        4.252535
 Parr & Pople absolute hardness:    5.014785
 Schuurmann MO shift alpha:        -4.252535
 
 Ehomo:                            -9.267320
 Elumo:                             0.762251


  a   n        Dn(r)        De(r)   q(r) - Z(r)

  N   1    -0.395516    -0.434429    -5.130194
  C   2    -0.501769    -0.415096    -4.196961
  C   3    -0.477780    -0.411427    -4.101275
  N   4    -0.344063    -0.567584    -5.296377
  C   5    -0.528351    -0.378768    -4.022213
  C   6    -0.501678    -0.326193    -4.078966
  C  11    -0.389501    -0.392479    -4.493966

 Total:    -3.138660    -2.925977

  a   n        piS(r)

  N   1    -0.173607
  C   2    -0.213145
  C   3    -0.210718
  N   4    -0.194012
  C   5    -0.208286
  C   6    -0.185361
  C  11    -0.186351

 Total:    -1.371481

  a   n       homo-1         homo         lumo       lumo+1

  N   1    35.430812     6.916937    22.040049    27.078840
  C   2    11.266628    30.698354    31.647490    16.381948
  C   3     6.611534    31.579250    10.243661     0.989576
  N   4    37.349137     0.723342     4.035885     1.657576
  C   5     2.768961    29.196327    27.439838    17.645983
  C   6     1.631411     0.161470     1.824426    34.119397
  C  11     3.564124     0.532896     2.194312     0.107120


              NET ATOMIC CHARGES AND DIPOLE CONTRIBUTIONS

  ATOM NO.   TYPE          CHARGE      No. of ELECS.   s-Pop       p-Pop       
    1          N          -0.130194        5.1302     1.46481     3.66539
    2          C          -0.196961        4.1970     1.11163     3.08533
    3          C          -0.101275        4.1013     1.10981     2.99147
    4          N          -0.296377        5.2964     1.73174     3.56463
    5          C          -0.022213        4.0222     1.12119     2.90102
    6          C          -0.078965        4.0790     1.08732     2.99165
    7          H           0.175231        0.8248     0.82477
    8          H           0.175450        0.8245     0.82455
    9          H           0.181329        0.8187     0.81867
   10          H           0.146057        0.8539     0.85394
   11          C          -0.493967        4.4940     1.08809     3.40587
   12          H           0.144720        0.8553     0.85528
   13          H           0.168111        0.8319     0.83189
   14          H           0.167615        0.8324     0.83238
   15          H           0.161438        0.8386     0.83856
 DIPOLE           X         Y         Z       TOTAL
 POINT-CHG.    -3.870     0.541    -0.873     4.003
 HYBRID        -0.890     0.428    -0.234     1.014
 SUM           -4.759     0.969    -1.106     4.981


          ATOMIC ORBITAL ELECTRON POPULATIONS

     Atom    s        px        py        pz   
    1  N   1.46481   1.09475   1.10657   1.46407
    2  C   1.11163   0.97877   0.96254   1.14403
    3  C   1.10981   1.00927   0.93294   1.04926
    4  N   1.73174   1.21313   1.13381   1.21770
    5  C   1.12119   0.88255   0.97830   1.04017
    6  C   1.08732   0.81862   1.14778   1.02525
    7  H   0.82477
    8  H   0.82455
    9  H   0.81867
   10  H   0.85394
   11  C   1.08809   1.12697   1.19658   1.08232
   12  H   0.85528
   13  H   0.83189
   14  H   0.83238
   15  H   0.83856

          BONDING CONTRIBUTION OF EACH M.O.

  1.6088  1.6428  1.7606  1.8417  1.9024  1.8753  1.8505  1.9218  1.8951  1.7117
  1.9418  2.0298  1.9970  1.8820  1.9794  1.9500  0.9260  1.4419  1.7532 -2.3750
 -1.9992 -2.2509 -1.9971 -1.9013 -1.8917 -1.9508 -1.9617 -1.9915 -1.9620 -1.9983
 -1.9763 -1.9542 -1.9135 -1.9130 -1.9157 -1.9597





            (VALENCIES)   BOND ORDERS

     1  N     (3.520)     2  C 1.204     5  C 1.204     6  C 0.921     4  N 0.094     3  C 0.074
 
     2  C     (3.908)     3  C 1.546     1  N 1.204     7  H 0.953     5  C 0.131     4  N 0.034     6  C 0.015
 
     3  C     (3.947)     2  C 1.546     4  N 1.315     8  H 0.950     1  N 0.074     5  C 0.038     6  C 0.011
 
     4  N     (3.017)     5  C 1.543     3  C 1.315     1  N 0.094     2  C 0.034     6  C 0.019
 
     5  C     (3.911)     4  N 1.543     1  N 1.204     9  H 0.946     2  C 0.131     3  C 0.038     6  C 0.016
 
     6  C     (3.913)    11  C 0.999    12  H 0.964    10  H 0.964     1  N 0.921     4  N 0.019     5  C 0.016
                          2  C 0.015     3  C 0.011
 
     7  H     (0.969)     2  C 0.953
 
     8  H     (0.969)     3  C 0.950
 
     9  H     (0.967)     5  C 0.946
 
    10  H     (0.979)     6  C 0.964
 
    11  C     (3.915)     6  C 0.999    14  H 0.965    13  H 0.965    15  H 0.963
 
    12  H     (0.979)     6  C 0.964
 
    13  H     (0.972)    11  C 0.965
 
    14  H     (0.972)    11  C 0.965
 
    15  H     (0.974)    11  C 0.963
 




 SELF-Q:    SELF OR INACTIVE CHARGE
 ACTIV-Q:   CHARGE WHICH IS USED TO FORM BONDS
 TOTAL-Q:   SELF-Q + ACTIV-Q
 FREE-VA:   TOTAL-Q - VALENCE
 STAT.PROM: TOTAL-Q - CORE CHARGE
 MULL.PROM: -CHARGE (SEE ABOVE)

       SELF-Q    ACTIV-Q   TOTAL-Q   VALENCE   FREE-VA STAT.PROM MULL.PROM


   1   1.61014   3.52006   5.13019   3.52006   0.00000   0.13019   0.13019

   2   0.28855   3.90841   4.19696   3.90841   0.00000   0.19696   0.19696

   3   0.15418   3.94709   4.10128   3.94709   0.00000   0.10128   0.10128

   4   2.27975   3.01663   5.29638   3.01663   0.00000   0.29638   0.29638

   5   0.11138   3.91083   4.02221   3.91083  -0.00000   0.02221   0.02221

   6   0.16642   3.91255   4.07897   3.91255   0.00000   0.07897   0.07897

   7  -0.14453   0.96929   0.82477   0.96929   0.00000  -0.17523  -0.17523

   8  -0.14467   0.96922   0.82455   0.96922   0.00000  -0.17545  -0.17545

   9  -0.14845   0.96712   0.81867   0.96712   0.00000  -0.18133  -0.18133

  10  -0.12472   0.97867   0.85394   0.97867   0.00000  -0.14606  -0.14606

  11   0.57849   3.91548   4.49397   3.91548  -0.00000   0.49397   0.49397

  12  -0.12378   0.97906   0.85528   0.97906   0.00000  -0.14472  -0.14472

  13  -0.13985   0.97174   0.83189   0.97174  -0.00000  -0.16811  -0.16811

  14  -0.13952   0.97191   0.83238   0.97191   0.00000  -0.16762  -0.16762

  15  -0.13538   0.97394   0.83856   0.97394  -0.00000  -0.16144  -0.16144

 CLOSED SHELL





          TOTAL ENERGY PARTITIONING

          ALL ENERGIES ARE IN ELECTRON VOLTS

            ONE-CENTER TERMS 
          E-E:  ELECTRON-ELECTRON REPULSION
          E-N:  ELECTRON-NUCLEAR ATTRACTION


   ATOM      E-E       E-N    (E-E + E-N)
   N   1   109.6478 -267.5209 -157.8731
   C   2    79.8942 -180.0145 -100.1203
   C   3    76.4724 -176.1727  -99.7003
   N   4   115.7211 -277.9189 -162.1977
   C   5    73.6379 -173.1420  -99.5041
   C   6    75.4890 -175.0309  -99.5419
   H   7     2.4572   -9.2761   -6.8190
   H   8     2.4559   -9.2737   -6.8178
   H   9     2.4210   -9.2076   -6.7866
   H  10     2.6341   -9.6043   -6.9702
   C  11    91.1476 -191.6138 -100.4662
   H  12     2.6423   -9.6193   -6.9770
   H  13     2.4998   -9.3562   -6.8565
   H  14     2.5027   -9.3618   -6.8591
   H  15     2.5400   -9.4313   -6.8912

              TWO-CENTER TERMS
           
          J:   RESONANCE ENERGY          E-E: ELECTRON-ELECTRON REPULSION
          K:   EXCHANGE ENERGY           E-N: ELECTRON-NUCLEAR ATTRACTION
                                         N-N: NUCLEAR-NUCLEAR REPULSION
          C:   COULOMBIC INTERACTION = E-E + E-N + N-N
          EE:  TOTAL OF ELECTRONIC AND NUCLEAR ENERGIES


     ATOM          J        K       E-E       E-N      N-N      C        EE
     PAIR
 
  C    2  N    1  -16.6692  -6.3948 166.4246 -327.1143 167.2511  6.5614 -16.5027
 
  C    3  N    1    0.3083  -0.2089 119.7352 -234.8124 115.6010  0.5237   0.6232
  C    3  C    2  -16.7069  -7.7758 136.2108 -267.2264 137.2694  6.2539 -18.2288
 
  N    4  N    1    0.3871  -0.2627 150.2047 -291.4221 141.8155  0.5982   0.7226
  N    4  C    2    0.2079  -0.0918 122.4067 -235.1617 113.3550  0.6000   0.7161
  N    4  C    3  -16.9035  -6.7974 167.1985 -328.4152 167.9457  6.7290 -16.9719
 
  C    5  N    1  -16.3905  -6.3159 159.8727 -320.3032 166.7696  6.3391 -16.3673
  C    5  C    2    0.5102  -0.3700  95.0694 -187.0342  92.4066  0.4418   0.5820
  C    5  C    3    0.1715  -0.1082  95.2544 -189.2137  94.5014  0.5421   0.6054
  C    5  N    4  -19.0442  -7.8927 166.8519 -331.2119 171.8725  7.5124 -19.4244
 
  C    6  N    1  -13.4605  -4.9883 157.9620 -313.7497 161.0411  5.2534 -13.1954
  C    6  C    2    0.2289  -0.0473  87.2994 -170.1080  83.0067  0.1982   0.3798
  C    6  C    3   -0.0206  -0.0249  62.3465 -122.5543  60.2274  0.0196  -0.0259
  C    6  N    4   -0.0174  -0.0388  79.2702 -153.9032  74.6873  0.0543  -0.0019
  C    6  C    5    0.2223  -0.0480  83.4413 -165.8846  82.5905  0.1473   0.3216

   ATOM          J        K       E-E       E-N      N-N      C        EE
   PAIR
  H    7  N    1    0.0694  -0.0045  24.9112  -54.5655  29.6701  0.0158   0.0807
  H    7  C    2  -12.1012  -5.4007  32.9624  -71.8189  43.9381  5.0816 -12.4203
  H    7  C    3    0.0650  -0.0040  19.6283  -43.0012  23.3761  0.0032   0.0641
  H    7  N    4   -0.0139  -0.0110  17.7057  -38.3980  20.5272 -0.1651  -0.1900
  H    7  C    5   -0.0245  -0.0198  13.7605  -30.4608  16.7039  0.0036  -0.0407
  H    7  C    6    0.0002  -0.0001  15.7821  -34.6751  18.8446 -0.0484  -0.0483

   ATOM          J        K       E-E       E-N      N-N      C        EE
   PAIR
  H    8  N    1   -0.0144  -0.0122  17.5599  -38.4430  20.7948 -0.0883  -0.1149
  H    8  C    2    0.0878  -0.0082  20.2316  -43.8225  23.4886 -0.1023  -0.0227
  H    8  C    3  -12.0083  -5.3772  32.1707  -70.7880  43.7848  5.1674 -12.2180
  H    8  N    4    0.0491  -0.0028  25.8950  -55.9995  29.9760 -0.1285  -0.0822
  H    8  C    5   -0.0273  -0.0205  14.0403  -31.0594  17.0175 -0.0016  -0.0494
  H    8  C    6    0.0005  -0.0015  10.0387  -22.0628  11.9921 -0.0320  -0.0331
  H    8  H    7   -0.0058  -0.0003   3.3324   -8.0819   4.9019  0.1524   0.1462

   ATOM          J        K       E-E       E-N      N-N      C        EE
   PAIR
  H    9  N    1    0.1147  -0.0109  24.6525  -54.1753  29.5174 -0.0055   0.0983
  H    9  C    2   -0.0235  -0.0182  14.2156  -31.0127  16.6717 -0.1255  -0.1671
  H    9  C    3   -0.0264  -0.0192  14.0936  -31.0381  16.8847 -0.0598  -0.1054
  H    9  N    4    0.0745  -0.0054  25.5680  -55.5536  29.8514 -0.1342  -0.0650
  H    9  C    5  -12.0298  -5.3485  31.3539  -69.8168  43.7271  5.2643 -12.1140
  H    9  C    6   -0.0045  -0.0003  15.5197  -34.2383  18.6683 -0.0504  -0.0551
  H    9  H    7    0.0002  -0.0001   2.2119   -5.3837   3.2759  0.1041   0.1042
  H    9  H    8    0.0001  -0.0000   2.2376   -5.4469   3.3147  0.1055   0.1055

   ATOM          J        K       E-E       E-N      N-N      C        EE
   PAIR
  H   10  N    1    0.0379  -0.0020  26.4813  -56.8538  30.4375  0.0649   0.1009
  H   10  C    2    0.0148  -0.0023  17.5327  -37.3059  19.6505 -0.1227  -0.1103
  H   10  C    3   -0.0002  -0.0006  12.0603  -25.9221  13.8172 -0.0447  -0.0455
  H   10  N    4    0.0003  -0.0010  14.3727  -30.5442  16.0586 -0.1129  -0.1136
  H   10  C    5   -0.0166  -0.0155  13.7980  -29.9439  16.1439 -0.0020  -0.0341
  H   10  C    6  -11.1495  -5.3334  32.5018  -70.3435  42.5370  4.6954 -11.7875
  H   10  H    7   -0.0073  -0.0004   3.5566   -8.4771   5.0526  0.1321   0.1244
  H   10  H    8    0.0000  -0.0000   2.0066   -4.7834   2.8498  0.0730   0.0730
  H   10  H    9    0.0001  -0.0000   2.5182   -6.0248   3.6020  0.0954   0.0955

   ATOM          J        K       E-E       E-N      N-N      C        EE
   PAIR
  C   11  N    1    0.1231  -0.0179 121.4277 -226.9625 106.0467  0.5118   0.6171
  C   11  C    2   -0.0006  -0.0119  76.4979 -141.4196  65.2829  0.3611   0.3487
  C   11  C    3   -0.0001  -0.0034  58.1756 -108.7530  50.7147  0.1373   0.1337
  C   11  N    4    0.0000  -0.0034  74.2346 -136.8779  63.0255  0.3822   0.3788
  C   11  C    5   -0.0001  -0.0140  73.1551 -138.1560  65.0295  0.0286   0.0145
  C   11  C    6  -11.7038  -5.1568 137.7571 -261.2966 127.9110  4.3716 -12.4890
  C   11  H    7   -0.0001  -0.0000  14.4023  -30.2982  15.5631 -0.3328  -0.3329
  C   11  H    8   -0.0000  -0.0000   9.7386  -20.4855  10.5204 -0.2264  -0.2264
  C   11  H    9    0.0000  -0.0000  14.1801  -29.9584  15.4367 -0.3416  -0.3416
  C   11  H   10    0.0508  -0.0018  22.7647  -47.0138  23.9607 -0.2885  -0.2395

   ATOM          J        K       E-E       E-N      N-N      C        EE
   PAIR
  H   12  N    1    0.0417  -0.0024  26.5689  -56.9747  30.4703  0.0645   0.1039
  H   12  C    2   -0.0177  -0.0162  14.4464  -30.7474  16.2013 -0.0997  -0.1336
  H   12  C    3    0.0002  -0.0006  11.3365  -24.3539  12.9772 -0.0402  -0.0406
  H   12  N    4   -0.0002  -0.0005  15.4735  -32.8398  17.2434 -0.1229  -0.1236
  H   12  C    5    0.0127  -0.0024  16.7835  -36.3418  19.5536 -0.0047   0.0057
  H   12  C    6  -11.1500  -5.3341  32.5499  -70.3898  42.5352  4.6953 -11.7888
  H   12  H    7   -0.0001  -0.0000   2.5584   -6.0933   3.6269  0.0920   0.0919
  H   12  H    8   -0.0000  -0.0001   1.8587   -4.4275   2.6357  0.0669   0.0668
  H   12  H    9   -0.0072  -0.0004   3.4995   -8.3662   5.0003  0.1336   0.1259
  H   12  H   10   -0.0300  -0.0005   5.1370  -12.0219   7.1148  0.2299   0.1995
  H   12  C   11    0.0523  -0.0019  22.7982  -47.0410  23.9580 -0.2849  -0.2345

   ATOM          J        K       E-E       E-N      N-N      C        EE
   PAIR
  H   13  N    1    0.0092  -0.0009  20.7181  -45.1063  24.2899 -0.0983  -0.0899
  H   13  C    2   -0.0043  -0.0004  14.9692  -32.2864  17.1807 -0.1365  -0.1412
  H   13  C    3    0.0001  -0.0000  11.1478  -24.3002  13.1022 -0.0502  -0.0501
  H   13  N    4    0.0000  -0.0000  13.3968  -28.8677  15.3429 -0.1280  -0.1280
  H   13  C    5   -0.0006  -0.0001  12.2770  -27.0054  14.7223 -0.0060  -0.0067
  H   13  C    6   -0.0022  -0.0010  20.1247  -43.9864  23.9161  0.0544   0.0513
  H   13  H    7   -0.0012  -0.0001   2.9813   -7.1985   4.3454  0.1281   0.1269
  H   13  H    8   -0.0000  -0.0000   1.8999   -4.5881   2.7699  0.0817   0.0817
  H   13  H    9    0.0000  -0.0000   2.2663   -5.4926   3.3277  0.1014   0.1014
  H   13  H   10    0.0065  -0.0002   3.7334   -8.8598   5.2607  0.1343   0.1406
  H   13  C   11  -11.2499  -5.3631  34.9423  -73.7069  43.0574  4.2928 -12.3202
  H   13  H   12   -0.0165  -0.0088   3.1386   -7.4426   4.4115  0.1075   0.0823

   ATOM          J        K       E-E       E-N      N-N      C        EE
   PAIR
  H   14  N    1    0.0087  -0.0008  20.7278  -45.1033  24.2755 -0.0999  -0.0920
  H   14  C    2   -0.0006  -0.0001  12.8230  -27.6808  14.7475 -0.1102  -0.1110
  H   14  C    3    0.0000  -0.0000  10.5279  -22.9490  12.3755 -0.0456  -0.0456
  H   14  N    4    0.0001  -0.0000  14.2837  -30.7525  16.3296 -0.1392  -0.1392
  H   14  C    5   -0.0040  -0.0004  14.3071  -31.4186  17.0964 -0.0151  -0.0195
  H   14  C    6   -0.0004  -0.0010  20.1306  -43.9841  23.9075  0.0540   0.0527
  H   14  H    7   -0.0000  -0.0000   2.2966   -5.5436   3.3452  0.0983   0.0983
  H   14  H    8   -0.0000  -0.0000   1.7654   -4.2620   2.5722  0.0756   0.0756
  H   14  H    9   -0.0009  -0.0000   2.9341   -7.1089   4.3058  0.1310   0.1300
  H   14  H   10   -0.0165  -0.0088   3.1353   -7.4382   4.4111  0.1082   0.0829
  H   14  C   11  -11.2534  -5.3646  34.9646  -73.7293  43.0610  4.2963 -12.3217
  H   14  H   12    0.0067  -0.0002   3.7425   -8.8719   5.2622  0.1328   0.1393
  H   14  H   13   -0.0883  -0.0037   4.9254  -11.8380   7.2007  0.2881   0.1962

   ATOM          J        K       E-E       E-N      N-N      C        EE
   PAIR
  H   15  N    1   -0.0118  -0.0121  17.2054  -37.2915  20.0026 -0.0835  -0.1074
  H   15  C    2    0.0004  -0.0009  11.3525  -24.3891  12.9400 -0.0965  -0.0971
  H   15  C    3   -0.0000  -0.0002   8.8898  -19.2941  10.3663 -0.0379  -0.0382
  H   15  N    4   -0.0000  -0.0004  11.3770  -24.3896  12.9058 -0.1068  -0.1071
  H   15  C    5    0.0003  -0.0010  10.8559  -23.7565  12.8919 -0.0087  -0.0094
  H   15  C    6   -0.0178  -0.0043  20.4100  -44.3645  24.0067  0.0521   0.0301
  H   15  H    7   -0.0000  -0.0000   2.2141   -5.3248   3.2013  0.0906   0.0905
  H   15  H    8    0.0000  -0.0000   1.5322   -3.6855   2.2160  0.0628   0.0628
  H   15  H    9   -0.0000  -0.0000   2.1804   -5.2635   3.1760  0.0930   0.0929
  H   15  H   10    0.0019  -0.0000   3.8014   -8.9847   5.3146  0.1312   0.1331
  H   15  C   11  -11.2890  -5.3626  35.2380  -74.0084  43.1161  4.3457 -12.3058
  H   15  H   12    0.0016  -0.0000   3.8037   -8.9832   5.3094  0.1299   0.1314
  H   15  H   13   -0.0796  -0.0031   4.9437  -11.8382   7.1723  0.2779   0.1952
  H   15  H   14   -0.0796  -0.0031   4.9471  -11.8428   7.1731  0.2774   0.1947
 

                    Total contribution from hydrogen bonds:         0.000 disp.:    0.000 Tot:     0.000 kcal/mol




***  SUMMARY OF ENERGY PARTITION  ***
 ---------------------------------------
     ONE-CENTER TERMS

 ELECTRON-NUCLEAR  (ONE-ELECTRON)        -1516.5438 EV
 ELECTRON-ELECTRON (TWO-ELECTRON)          642.1628 EV

 TOTAL OF ONE-CENTER TERMS                -874.3811 EV
 ---------------------------------------
     TWO-CENTER TERMS

 RESONANCE ENERGY                         -200.8253 EV
 EXCHANGE ENERGY                           -89.6966 EV

 EXCHANGE + RESONANCE ENERGY:             -290.5219 EV

 ELECTRON-ELECTRON REPULSION              3534.5032 EV
 ELECTRON-NUCLEAR ATTRACTION             -7141.9114 EV
 NUCLEAR-NUCLEAR REPULSION                3692.6332 EV

 TOTAL ELECTROSTATIC INTERACTION            85.2250 EV

 GRAND TOTAL OF TWO-CENTER TERMS          -205.2968 EV
 ---------------------------------------
 ETOT (EONE + ETWO)                      -1079.6779 EV


 ******************** TDHF POLARIZABILITIES ********************



          MOLECULAR WEIGHT =   96.13



          ROTATIONAL CONSTANTS IN CM(-1)

          A =    0.21852206   B =    0.06386707   C =    0.05588936



           PRINCIPAL MOMENTS OF INERTIA IN UNITS OF 10**(-40)*GRAM-CM**2

          A =      128.1003   B =      438.2971   C =      500.8602


 ROTATION MATRIX FOR ORIENTATION OF MOLECULE:

         0.999817   -0.007641   -0.017562
         0.010559    0.984936    0.172596
         0.015978   -0.172750    0.984836


          CARTESIAN COORDINATES 

    NO.       ATOM         X         Y         Z

     1         N       -0.2248    0.0104   -0.3215
     2         C        0.5617    1.1514   -0.1030
     3         C        1.8396    0.6832    0.2138
     4         N        1.8547   -0.7119    0.2107
     5         C        0.5999   -1.1098   -0.1025
     6         C       -1.6708   -0.0005   -0.6095
     7         H        0.1893    2.1515   -0.1898
     8         H        2.7267    1.2495    0.4351
     9         H        0.2628   -2.1290   -0.1919
    10         H       -1.9257    0.8917   -1.2280
    11         C       -2.4938   -0.0096    0.6761
    12         H       -1.9078   -0.8965   -1.2297
    13         H       -2.2878    0.8717    1.2984
    14         H       -2.2761   -0.8903    1.2951
    15         H       -3.5683   -0.0165    0.4577


 ENERGY OF "REORIENTED" SYSTEM WITHOUT FIELD:       25.7175966932


  NFREQ=  3  IWFLB=  0  IBET=  1  IGAM=  1
  ATOL= 0.10000D-02  BTOL= 0.10000D-02    MAXITU=  500    MAXITA=  150


 *****************************************************************
 CALCULATION OF STATIC FIELD QUANTITIES
 *****************************************************************

 +++++ ALPHA AT       0.00000 EV.

                           COMPONENTS OF ALPHA

                     *X           *Y           *Z
           *=X:      89.1671       0.0306       8.8503
           *=Y:       0.0312      80.1223       0.1844
           *=Z:       8.8510       0.1837      54.9810

  ISOTROPIC AVERAGE ALPHA =      74.75679 A.U. =     11.07781 ANG.**3

 +++++ BETA (SECOND HARMONIC GENERATION) AT       0.00000 EV.

                              COMPONENTS OF BETA
            *XX         *XY         *YY         *XZ         *YZ         *ZZ
   *=X    97.39274   -56.77654    35.85090    15.87031   -11.61666    22.76821
   *=Y   -56.75895    35.90201    47.52083   -11.61258    11.23582    -7.33229
   *=Z    15.88159   -11.62786    11.21265    22.77287    -7.33502    17.58851


 AVERAGE BETAX(SHG) VALUE AT   0.00000 EV =         93.6294 a.u. =  0.808904E-30 ESU
 AVERAGE BETAY(SHG) VALUE AT   0.00000 EV =         -9.9504 a.u. = -0.859654E-31 ESU
 AVERAGE BETAZ(SHG) VALUE AT   0.00000 EV =         26.8144 a.u. =  0.231661E-30 ESU



 AVERAGE BETA (SHG) VALUE AT   0.00000 EV =         97.9004 a.u. =  0.845803E-30 ESU
   (1 a.u. = 8.639418X10-33 esu)



 +++++ ALPHA AT       0.00000 EV.

                           COMPONENTS OF ALPHA

                     *X           *Y           *Z
           *=X:      89.1672       0.0306       8.8503
           *=Y:       0.0309      80.1223       0.1844
           *=Z:       8.8511       0.1837      54.9810

  ISOTROPIC AVERAGE ALPHA =      74.75683 A.U. =     11.07782 ANG.**3


 GAMMA (THIRD HARMONIC GENERATION) AT    0.00000 EV.


 GAMMA(X,X,X,X) =         10342.71021
 GAMMA(Y,Y,Y,Y) =          4743.06771
 GAMMA(Z,Z,Z,Z) =           361.33690
 GAMMA(X,X,Y,Y) =          -473.76722
 GAMMA(X,X,Z,Z) =           941.65457
 GAMMA(Y,Y,X,X) =          -473.70885
 GAMMA(Y,Y,Z,Z) =           451.68223
 GAMMA(Z,Z,X,X) =           941.68738
 GAMMA(Z,Z,Y,Y) =           451.64311


 AVERAGE GAMMA VALUE AT    0.00000 =          3457.26121 a.u. =         1741.31964 ESU (X10-39)




 **********************************************************************
 CALCULATION FOR A FREQUENCY OF    0.25000 EV  =       0.00919 A.U. 
                  WAVELENGTH OF    4959.37 NM  =    2016.38525 CM(-1)
 **********************************************************************

 +++++ ALPHA AT       0.25000 EV.

                           COMPONENTS OF ALPHA

                     *X           *Y           *Z
           *=X:      89.2316       0.0211       8.8610
           *=Y:       0.0215      80.1718       0.1825
           *=Z:       8.8616       0.1819      54.9968

  ISOTROPIC AVERAGE ALPHA =      74.80007 A.U. =     11.08423 ANG.**3

 +++++ BETA (SECOND HARMONIC GENERATION) AT       0.25000 EV.

                              COMPONENTS OF BETA
            *XX         *XY         *YY         *XZ         *YZ         *ZZ
   *=X    98.00999   -57.70113    35.97215    15.97736   -11.83246    22.87314
   *=Y   -57.57063    36.78587    48.55017   -11.81061    11.47496    -7.34964
   *=Z    15.81332   -11.82671    11.27970    22.99670    -7.40508    17.70258


 AVERAGE BETAX(SHG) VALUE AT   0.25000 EV =         94.4881 a.u. =  0.816322E-30 ESU
 AVERAGE BETAY(SHG) VALUE AT   0.25000 EV =         -9.8964 a.u. = -0.854995E-31 ESU
 AVERAGE BETAZ(SHG) VALUE AT   0.25000 EV =         27.0211 a.u. =  0.233446E-30 ESU



 AVERAGE BETA (SHG) VALUE AT   0.25000 EV =         98.7728 a.u. =  0.853340E-30 ESU
   (1 a.u. = 8.639418X10-33 esu)



 +++++ ALPHA AT       0.75000 EV.

                           COMPONENTS OF ALPHA

                     *X           *Y           *Z
           *=X:      89.7527      -0.0569       8.9476
           *=Y:      -0.0571      80.5750       0.1677
           *=Z:       8.9485       0.1667      55.1222

  ISOTROPIC AVERAGE ALPHA =      75.14996 A.U. =     11.13608 ANG.**3


 GAMMA (THIRD HARMONIC GENERATION) AT    0.25000 EV.


 GAMMA(X,X,X,X) =         10540.97617
 GAMMA(Y,Y,Y,Y) =          4920.55981
 GAMMA(Z,Z,Z,Z) =           368.00293
 GAMMA(X,X,Y,Y) =          -493.07449
 GAMMA(X,X,Z,Z) =           965.22957
 GAMMA(Y,Y,X,X) =          -498.94696
 GAMMA(Y,Y,Z,Z) =           464.96706
 GAMMA(Z,Z,X,X) =           957.08382
 GAMMA(Z,Z,Y,Y) =           456.41708


 AVERAGE GAMMA VALUE AT    0.25000 =          3536.24300 a.u. =         1781.10042 ESU (X10-39)




 **********************************************************************
 CALCULATION FOR A FREQUENCY OF    0.50000 EV  =       0.01837 A.U. 
                  WAVELENGTH OF    2479.68 NM  =    4032.77050 CM(-1)
 **********************************************************************

 +++++ ALPHA AT       0.50000 EV.

                           COMPONENTS OF ALPHA

                     *X           *Y           *Z
           *=X:      89.4251      -0.0074       8.8932
           *=Y:      -0.0071      80.3213       0.1771
           *=Z:       8.8938       0.1763      55.0437

  ISOTROPIC AVERAGE ALPHA =      74.93002 A.U. =     11.10348 ANG.**3

 +++++ BETA (SECOND HARMONIC GENERATION) AT       0.50000 EV.

                              COMPONENTS OF BETA
            *XX         *XY         *YY         *XZ         *YZ         *ZZ
   *=X    99.83450   -60.62963    36.27138    16.28766   -12.51407    23.17887
   *=Y   -60.10043    39.70127    51.80570   -12.42218    12.26474    -7.39605
   *=Z    15.57576   -12.44995    11.47498    23.68297    -7.62644    18.04956


 AVERAGE BETAX(SHG) VALUE AT   0.50000 EV =         97.1444 a.u. =  0.839272E-30 ESU
 AVERAGE BETAY(SHG) VALUE AT   0.50000 EV =         -9.7183 a.u. = -0.839605E-31 ESU
 AVERAGE BETAZ(SHG) VALUE AT   0.50000 EV =         27.6608 a.u. =  0.238974E-30 ESU



 AVERAGE BETA (SHG) VALUE AT   0.50000 EV =        101.4722 a.u. =  0.876661E-30 ESU
   (1 a.u. = 8.639418X10-33 esu)



 +++++ ALPHA AT       1.50000 EV.

                           COMPONENTS OF ALPHA

                     *X           *Y           *Z
           *=X:      91.6364      -0.3789       9.2657
           *=Y:      -0.3792      82.0563       0.1050
           *=Z:       9.2669       0.1036      55.5633

  ISOTROPIC AVERAGE ALPHA =      76.41866 A.U. =     11.32408 ANG.**3


 GAMMA (THIRD HARMONIC GENERATION) AT    0.50000 EV.


 GAMMA(X,X,X,X) =         11180.44472
 GAMMA(Y,Y,Y,Y) =          5523.61798
 GAMMA(Z,Z,Z,Z) =           389.52381
 GAMMA(X,X,Y,Y) =          -559.53872
 GAMMA(X,X,Z,Z) =          1043.45340
 GAMMA(Y,Y,X,X) =          -589.95999
 GAMMA(Y,Y,Z,Z) =           510.55055
 GAMMA(Z,Z,X,X) =          1006.16832
 GAMMA(Z,Z,Y,Y) =           470.41266


 AVERAGE GAMMA VALUE AT    0.50000 =          3794.93455 a.u. =         1911.39566 ESU (X10-39)


 ******************** FINITE-FIELD POLARIZABILITIES ********************

    THE F-F METHOD IS PERFORMED USING BOTH AN ENERGY
    AND DIPOLE MOMENT EXPANSION.  THESE RESULTS ARE
    LISTED BELOW AS "H.o.F." AND "Dipole", RESPECTIVELY.

          MOLECULAR WEIGHT =   96.13



          ROTATIONAL CONSTANTS IN CM(-1)

          A =    0.21852206   B =    0.06386707   C =    0.05588936



           PRINCIPAL MOMENTS OF INERTIA IN UNITS OF 10**(-40)*GRAM-CM**2

          A =      128.1003   B =      438.2971   C =      500.8602


 ROTATION MATRIX FOR ORIENTATION OF MOLECULE:

         0.999817   -0.007641   -0.017562
         0.010559    0.984936    0.172596
         0.015978   -0.172750    0.984836


          CARTESIAN COORDINATES 

    NO.       ATOM         X         Y         Z

     1         N       -0.2248    0.0104   -0.3215
     2         C        0.5617    1.1514   -0.1030
     3         C        1.8396    0.6832    0.2138
     4         N        1.8547   -0.7119    0.2107
     5         C        0.5999   -1.1098   -0.1025
     6         C       -1.6708   -0.0005   -0.6095
     7         H        0.1893    2.1515   -0.1898
     8         H        2.7267    1.2495    0.4351
     9         H        0.2628   -2.1290   -0.1919
    10         H       -1.9257    0.8917   -1.2280
    11         C       -2.4938   -0.0096    0.6761
    12         H       -1.9078   -0.8965   -1.2297
    13         H       -2.2878    0.8717    1.2984
    14         H       -2.2761   -0.8903    1.2951
    15         H       -3.5683   -0.0165    0.4577


 ENERGY OF "REORIENTED" SYSTEM WITHOUT FIELD:       25.71760 Kcal/mol


 APPLIED ELECTRIC FIELD MAGNITUDE:         0.10284 VOLTS PER ANGSTROM
    Step  1 of 36 done (+X)
    Step  2 of 36 done (-X)
    Step  3 of 36 done (+2X)
    Step  4 of 36 done (-2X)
    Step  5 of 36 done (+Y)
    Step  6 of 36 done (-Y)
    Step  7 of 36 done (+2Y)
    Step  8 of 36 done (-2Y)
    Step  9 of 36 done (+Y+X)
    Step 10 of 36 done (+Y-X)
    Step 11 of 36 done (-Y-X)
    Step 12 of 36 done (-Y+X)
    Step 13 of 36 done (+2Y+2X)
    Step 14 of 36 done (+2Y-2X)
    Step 15 of 36 done (-2Y-2X)
    Step 16 of 36 done (-2Y+2X)
    Step 17 of 36 done (+Z)
    Step 18 of 36 done (-Z)
    Step 19 of 36 done (+2Z)
    Step 20 of 36 done (-2Z)
    Step 21 of 36 done (+Z+X)
    Step 22 of 36 done (+Z-X)
    Step 23 of 36 done (-Z-X)
    Step 24 of 36 done (-Z+X)
    Step 25 of 36 done (+2Z+2X)
    Step 26 of 36 done (+2Z-2X)
    Step 27 of 36 done (-2Z-2X)
    Step 28 of 36 done (-2Z+2X)
    Step 29 of 36 done (+Z+Y)
    Step 30 of 36 done (+Z-Y)
    Step 31 of 36 done (-Z-Y)
    Step 32 of 36 done (-Z+Y)
    Step 33 of 36 done (+2Z+2Y)
    Step 34 of 36 done (+2Z-2Y)
    Step 35 of 36 done (-2Z-2Y)
    Step 36 of 36 done (-2Z+2Y)


 ****************************** DIPOLE ******************************


                     H.o.F.         Dipole

     X              1.874996       1.874928
     Y             -0.464946      -0.464930
     X              0.329888       0.329880


 MAGNITUDE:         1.959747       1.959677  (A.U.)
                    4.981180       4.981003  (DEBYE)


 ****************************** POLARIZABILITY ********************



 Polarizability Tensor from Heat of Formation:


                     1          2          3
 ------------------------------------------
          1  89.168538
          2   0.029657  80.123110
          3   8.851253   0.183492  54.981969




    ROOT NO.    1           2           3

            52.82515    80.12372    91.32475
  
         1  -0.23662    -0.00775    -0.97157
         2  -0.00627     0.99996    -0.00645
         3   0.97158     0.00457    -0.23666

 Polarizability Tensor from Dipole Moment:


                     1          2          3
 ------------------------------------------
          1  89.169198
          2   0.030088  80.122659
          3   8.847277   0.182197  54.985099




    ROOT NO.    1           2           3

            52.82999    80.12325    91.32372
  
         1  -0.23654    -0.00775    -0.97159
         2  -0.00623     0.99996    -0.00646
         3   0.97160     0.00452    -0.23658


 Average Polarizability from:     H.o.F         Dipole
                               74.757872      74.758985  A.U.
                               11.077622      11.077786  ANG.**3
                            2.215465D-23   2.215497D-23  ESU
 *******************************************************************************
 **                                                                           **
 **                              MOPAC v22.1.1                                **
 **                                                                           **
 *******************************************************************************
 **          Digital Object Identifier (DOI): 10.5281/zenodo.6511958          **
 **    Visit the DOI location for information on how to cite this program.    **
 *******************************************************************************

                              PM6 CALCULATION RESULTS

 *******************************************************************************
 *  CALCULATION DONE:                                Tue May  7 17:20:50 2024  *
 *  PM6        - The PM6 Hamiltonian to be used
 *  OLDGEO     - PREVIOUS GEOMETRY TO BE USED
 *  FORCE      - FORCE CALCULATION SPECIFIED
 *  T=         - A TIME OF 172800.0 SECONDS REQUESTED
 *  DUMP=N     - RESTART FILE WRITTEN EVERY 7200.0 SECONDS REQUESTED
 *  THERMO     - THERMODYNAMIC QUANTITIES TO BE CALCULATED
 *******************************************************************************
PM6 OLDGEO FORCE THERMO
 emi
 All coordinates are Cartesian
   ATOM   CHEMICAL          X               Y               Z
  NUMBER   SYMBOL      (ANGSTROMS)     (ANGSTROMS)     (ANGSTROMS)
 
     1       N          0.32990588  *  -0.07258016  *  -0.36221290  *
     2       C          1.11636695  *   1.06839193  *  -0.14376337  *
     3       C          2.39430664  *   0.60016037  *   0.17302797  *
     4       N          2.40941718  *  -0.79496454  *   0.16997233  *
     5       C          1.15464097  *  -1.19283825  *  -0.14326285  *
     6       C         -1.11612381  *  -0.08350029  *  -0.65023529  *
     7       H          0.74400628  *   2.06849020  *  -0.23050703  *
     8       H          3.28135266  *   1.16649311  *   0.39437903  *
     9       H          0.81752173  *  -2.21205826  *  -0.23261857  *
    10       H         -1.37098164  *   0.80871282  *  -1.26871534  *
    11       C         -1.93913270  *  -0.09262103  *   0.63540165  *
    12       H         -1.35311068  *  -0.97953503  *  -1.27039883  *
    13       H         -1.73315515  *   0.78872381  *   1.25765445  *
    14       H         -1.72139421  *  -0.97333894  *   1.25432608  *
    15       H         -3.01362009  *  -0.09953576  *   0.41695267  *
 


          CARTESIAN COORDINATES 

    NO.       ATOM           X           Y           Z

     1         N          0.3299     -0.0726     -0.3622
     2         C          1.1164      1.0684     -0.1438
     3         C          2.3943      0.6002      0.1730
     4         N          2.4094     -0.7950      0.1700
     5         C          1.1546     -1.1928     -0.1433
     6         C         -1.1161     -0.0835     -0.6502
     7         H          0.7440      2.0685     -0.2305
     8         H          3.2814      1.1665      0.3944
     9         H          0.8175     -2.2121     -0.2326
    10         H         -1.3710      0.8087     -1.2687
    11         C         -1.9391     -0.0926      0.6354
    12         H         -1.3531     -0.9795     -1.2704
    13         H         -1.7332      0.7887      1.2577
    14         H         -1.7214     -0.9733      1.2543
    15         H         -3.0136     -0.0995      0.4170

 General Reference for PM6:
 "Optimization of Parameters for Semiempirical Methods V: Modification of NDDO Approximations
 and Application to 70 Elements", J. J. P. Stewart, J. Mol. Mod., 13, 1173-1213 (2007)
 URL: https://link.springer.com/article/10.1007/s00894-007-0233-4

           Empirical Formula: C5 H8 N2  =    15 atoms



      MOLECULAR POINT GROUP   :   C1  


      RHF CALCULATION, NO. OF DOUBLY OCCUPIED LEVELS = 19



          HEAT OF FORMATION =      25.717597 KCALS/MOLE


          CARTESIAN COORDINATE DERIVATIVES

   NUMBER  ATOM         X            Y            Z

     1       N      0.007298    -0.011411     0.007042
     2       C      0.000475    -0.003753    -0.002962
     3       C      0.007252    -0.002259    -0.003011
     4       N     -0.005935     0.010269     0.001125
     5       C     -0.005159     0.006874     0.001295
     6       C      0.004056     0.003775     0.004694
     7       H      0.005575    -0.006812    -0.002261
     8       H     -0.000652     0.000098     0.000329
     9       H     -0.008445     0.001882    -0.003660
    10       H      0.001915    -0.000642     0.009159
    11       C     -0.003234    -0.009334    -0.004429
    12       H     -0.005715     0.002061     0.006886
    13       H      0.012148    -0.002439    -0.003248
    14       H     -0.005591     0.013291    -0.007068
    15       H     -0.003989    -0.001599    -0.003890
 


          GRADIENT NORM =   0.03885

          MOLECULAR WEIGHT =   96.13



          ROTATIONAL CONSTANTS IN CM(-1)

          A =    0.21852206   B =    0.06386707   C =    0.05588936



           PRINCIPAL MOMENTS OF INERTIA IN UNITS OF 10**(-40)*GRAM-CM**2

          A =      128.1003   B =      438.2971   C =      500.8602


          ORIENTATION OF MOLECULE IN FORCE CALCULATION

    NO.       ATOM         X         Y         Z

     1          N      -0.1676   -0.2453    0.2564
     2          C       1.2353   -0.2453    0.2564
     3          C       1.6202    1.0981    0.2564
     4          N       0.4935    1.9209    0.2409
     5          C      -0.5823    1.1002    0.2293
     6          C      -1.0320   -1.4373    0.1795
     7          H       1.8264   -1.1379    0.2648
     8          H       2.6126    1.5124    0.2692
     9          H      -1.6141    1.4094    0.2167
    10          H      -0.5455   -2.2760    0.7304
    11          C      -1.3006   -1.8369   -1.2691
    12          H      -1.9902   -1.2221    0.7079
    13          H      -0.3714   -2.0677   -1.8074
    14          H      -1.7984   -1.0342   -1.8293
    15          H      -1.9426   -2.7243   -1.3219


    FIRST DERIVATIVES WILL BE USED IN THE CALCULATION OF SECOND DERIVATIVES

          ESTIMATED TIME TO COMPLETE CALCULATION =        0.70 SECONDS

    FOR POINT-GROUP C1   THERE ARE   1 UNIQUE SYMMETRY FUNCTIONS.

 STEP:   1 TIME =     0.01 SECS, INTEGRAL =      0.01 TIME LEFT: 172799.98
 STEP:   2 TIME =     0.01 SECS, INTEGRAL =      0.02 TIME LEFT: 172799.98
 STEP:   3 TIME =     0.01 SECS, INTEGRAL =      0.03 TIME LEFT: 172799.96
 STEP:   4 TIME =     0.01 SECS, INTEGRAL =      0.04 TIME LEFT: 172799.96
 STEP:   5 TIME =     0.01 SECS, INTEGRAL =      0.04 TIME LEFT: 172799.95
 STEP:   6 TIME =     0.01 SECS, INTEGRAL =      0.05 TIME LEFT: 172799.94
 STEP:   7 TIME =     0.01 SECS, INTEGRAL =      0.06 TIME LEFT: 172799.93
 STEP:   8 TIME =     0.01 SECS, INTEGRAL =      0.07 TIME LEFT: 172799.92
 STEP:   9 TIME =     0.01 SECS, INTEGRAL =      0.08 TIME LEFT: 172799.91
 STEP:  10 TIME =     0.01 SECS, INTEGRAL =      0.09 TIME LEFT: 172799.90
 STEP:  11 TIME =     0.01 SECS, INTEGRAL =      0.10 TIME LEFT: 172799.89
 STEP:  12 TIME =     0.01 SECS, INTEGRAL =      0.11 TIME LEFT: 172799.88
 STEP:  13 TIME =     0.01 SECS, INTEGRAL =      0.12 TIME LEFT: 172799.88
 STEP:  14 TIME =     0.01 SECS, INTEGRAL =      0.12 TIME LEFT: 172799.87
 STEP:  15 TIME =     0.01 SECS, INTEGRAL =      0.14 TIME LEFT: 172799.86
 STEP:  16 TIME =     0.01 SECS, INTEGRAL =      0.14 TIME LEFT: 172799.85
 STEP:  17 TIME =     0.01 SECS, INTEGRAL =      0.15 TIME LEFT: 172799.84
 STEP:  18 TIME =     0.01 SECS, INTEGRAL =      0.16 TIME LEFT: 172799.83
 STEP:  19 TIME =     0.01 SECS, INTEGRAL =      0.17 TIME LEFT: 172799.82
 STEP:  20 TIME =     0.01 SECS, INTEGRAL =      0.18 TIME LEFT: 172799.81
 STEP:  21 TIME =     0.01 SECS, INTEGRAL =      0.19 TIME LEFT: 172799.80
 STEP:  22 TIME =     0.01 SECS, INTEGRAL =      0.20 TIME LEFT: 172799.80
 STEP:  23 TIME =     0.01 SECS, INTEGRAL =      0.20 TIME LEFT: 172799.79
 STEP:  24 TIME =     0.01 SECS, INTEGRAL =      0.21 TIME LEFT: 172799.78
 STEP:  25 TIME =     0.01 SECS, INTEGRAL =      0.22 TIME LEFT: 172799.77
 STEP:  26 TIME =     0.01 SECS, INTEGRAL =      0.23 TIME LEFT: 172799.76
 STEP:  27 TIME =     0.01 SECS, INTEGRAL =      0.24 TIME LEFT: 172799.75
 STEP:  28 TIME =     0.01 SECS, INTEGRAL =      0.25 TIME LEFT: 172799.75
 STEP:  29 TIME =     0.01 SECS, INTEGRAL =      0.25 TIME LEFT: 172799.74
 STEP:  30 TIME =     0.01 SECS, INTEGRAL =      0.26 TIME LEFT: 172799.73
 STEP:  31 TIME =     0.01 SECS, INTEGRAL =      0.27 TIME LEFT: 172799.72
 STEP:  32 TIME =     0.01 SECS, INTEGRAL =      0.28 TIME LEFT: 172799.71
 STEP:  33 TIME =     0.01 SECS, INTEGRAL =      0.29 TIME LEFT: 172799.70
 STEP:  34 TIME =     0.01 SECS, INTEGRAL =      0.30 TIME LEFT: 172799.70
 STEP:  35 TIME =     0.01 SECS, INTEGRAL =      0.31 TIME LEFT: 172799.68
 STEP:  36 TIME =     0.01 SECS, INTEGRAL =      0.32 TIME LEFT: 172799.68
 STEP:  37 TIME =     0.01 SECS, INTEGRAL =      0.32 TIME LEFT: 172799.67
 STEP:  38 TIME =     0.01 SECS, INTEGRAL =      0.33 TIME LEFT: 172799.66
 STEP:  39 TIME =     0.01 SECS, INTEGRAL =      0.34 TIME LEFT: 172799.65
 STEP:  40 TIME =     0.01 SECS, INTEGRAL =      0.35 TIME LEFT: 172799.64
 STEP:  41 TIME =     0.01 SECS, INTEGRAL =      0.36 TIME LEFT: 172799.63
 STEP:  42 TIME =     0.01 SECS, INTEGRAL =      0.37 TIME LEFT: 172799.62
 STEP:  43 TIME =     0.01 SECS, INTEGRAL =      0.38 TIME LEFT: 172799.62
 STEP:  44 TIME =     0.01 SECS, INTEGRAL =      0.38 TIME LEFT: 172799.61
 STEP:  45 TIME =     0.01 SECS, INTEGRAL =      0.39 TIME LEFT: 172799.60

(To convert to Hartree/Bohr^2, multiply by (10^(-21) x N x a0^2)/(4.184 x 627.51) =  0.0642)


           FORCE MATRIX IN MILLIDYNES/ANGSTROM


                  N  1       C  2       C  3       N  4       C  5       C  6
 ------------------------------------------------------------------------------
     N    1  16.362661
     C    2   5.136604  14.533360
     C    3   1.888035   5.969111  14.295156
     N    4   2.303490   2.075380   5.280893  12.481830
     C    5   4.712766   1.376280   2.064026   6.440963  14.294270
     C    6   4.216914   0.545456   0.088793   0.153937   0.496279  12.155270
     H    7   0.736109   3.585046   0.563885   0.095174   0.095058   0.025216
     H    8   0.078457   0.599325   3.557751   0.713040   0.125427   0.022550
     H    9   0.702887   0.098554   0.126417   0.713111   3.479398   0.030737
     H   10   0.767568   0.050540   0.014125   0.034342   0.054531   3.277298
     C   11   0.845016   0.059775   0.037430   0.053738   0.072057   3.387645
     H   12   0.761607   0.061360   0.021852   0.024768   0.062239   3.276515
     H   13   0.023426   0.014365   0.009258   0.015238   0.019639   0.618551
     H   14   0.022933   0.016300   0.011420   0.014000   0.018888   0.617951
     H   15   0.058347   0.009841   0.006231   0.008960   0.012383   0.603403


                  H  7       H  8       H  9       H 10       C 11       H 12
 ------------------------------------------------------------------------------
     H    7   4.408880
     H    8   0.020140   4.393560
     H    9   0.015446   0.013581   4.363871
     H   10   0.011042   0.002484   0.003583   4.170937
     C   11   0.014488   0.008727   0.015738   0.601045  11.449307
     H   12   0.003144   0.003630   0.009655   0.415175   0.600472   4.169598
     H   13   0.006916   0.002116   0.002538   0.017562   3.490939   0.051610
     H   14   0.002501   0.001868   0.006775   0.051741   3.491568   0.017469
     H   15   0.002413   0.001571   0.002485   0.017522   3.489713   0.017444


                  H 13       H 14       H 15
 ------------------------------------------
     H   13   4.231464
     H   14   0.439098   4.231112
     H   15   0.437693   0.437896   4.233206


          HEAT OF FORMATION =      25.717597 KCALS/MOLE

          ZERO POINT ENERGY      73.274 KCAL/MOL


           NORMAL COORDINATE ANALYSIS (Total motion = 1 Angstrom)


   Root No.       1         2         3         4         5         6         7         8

                 1 A       2 A       3 A       4 A       5 A       6 A       7 A       8 A   

                  39.1     115.6     145.0     338.2     374.1     505.7     559.9     663.1
  
           1   -0.0166   -0.0104   -0.0090    0.0469   -0.0046   -0.0026   -0.0009    0.0230
           2    0.0122   -0.0118    0.0065   -0.0331   -0.0043   -0.0019    0.0000    0.0341
           3   -0.0017    0.0822   -0.0004   -0.0001   -0.0303    0.1135    0.0165    0.0129
           4   -0.0165   -0.0095   -0.0086    0.0480   -0.0081    0.0038    0.0008    0.0143
           5   -0.0057   -0.0128   -0.0058    0.0080   -0.0155    0.0109    0.0013   -0.0444
           6   -0.0414    0.0222   -0.0011   -0.0004   -0.0497   -0.0631    0.0313    0.0008
           7    0.0007   -0.0084    0.0036   -0.0014   -0.0106    0.0071    0.0020   -0.0243
           8   -0.0107   -0.0140   -0.0097    0.0265   -0.0149    0.0084    0.0005   -0.0451
           9   -0.0236   -0.0549   -0.0003    0.0014    0.0222    0.0311   -0.0822   -0.0003
          10    0.0107   -0.0087    0.0106   -0.0274   -0.0094    0.0051   -0.0014   -0.0303
          11    0.0040   -0.0129    0.0002   -0.0094   -0.0136    0.0094    0.0005   -0.0335
          12    0.0266   -0.0522    0.0011   -0.0009    0.0168    0.0061    0.1144   -0.0005
          13   -0.0002   -0.0095    0.0029    0.0059   -0.0113    0.0101    0.0018   -0.0437
          14    0.0180   -0.0117    0.0098   -0.0484   -0.0107    0.0065   -0.0006    0.0016
          15    0.0393    0.0229    0.0008   -0.0011   -0.0449   -0.0504   -0.0682   -0.0007
          16   -0.0312   -0.0078   -0.0086   -0.0489   -0.0020   -0.0014   -0.0002    0.0591
          17    0.0227   -0.0085    0.0060    0.0372   -0.0038   -0.0024    0.0001    0.0805
          18   -0.0008    0.0086   -0.0002    0.0003    0.0500   -0.0179   -0.0010   -0.0260
          19   -0.0282   -0.0107   -0.0168    0.0798   -0.0120    0.0084    0.0007   -0.0257
          20   -0.0138   -0.0135   -0.0112    0.0299   -0.0184    0.0123    0.0022   -0.0705
          21   -0.0777    0.0453   -0.0015    0.0012   -0.1024   -0.1989    0.1420   -0.0076
          22    0.0063   -0.0079    0.0072   -0.0162   -0.0112    0.0062    0.0044   -0.0368
          23   -0.0236   -0.0136   -0.0184    0.0624   -0.0152    0.0086    0.0008   -0.0159
          24   -0.0433   -0.1074   -0.0006    0.0040    0.0698    0.1066   -0.2789    0.0027
          25    0.0036   -0.0099    0.0058   -0.0062   -0.0112    0.0113    0.0033   -0.0535
          26    0.0320   -0.0116    0.0193   -0.0863   -0.0129    0.0084   -0.0024   -0.0327
          27    0.0758    0.0504    0.0009   -0.0045   -0.0923   -0.1356   -0.2426   -0.0021
          28   -0.0761   -0.0257   -0.0092   -0.1736    0.0043   -0.0123   -0.0023    0.0538
          29    0.0396   -0.0319    0.0115    0.0142    0.0038   -0.0194   -0.0016    0.0717
          30    0.0652   -0.0122    0.0095    0.0700    0.0527   -0.0302   -0.0017   -0.0221
          31    0.0491    0.0481    0.0077   -0.0114    0.0371   -0.0159   -0.0013    0.0094
          32   -0.0377    0.0633   -0.0061    0.0104    0.0509   -0.0222   -0.0010    0.0129
          33    0.0010   -0.0226    0.0002    0.0009    0.0336   -0.0131   -0.0004    0.0081
          34   -0.0591   -0.0254   -0.0136   -0.0634    0.0040   -0.0138   -0.0019    0.0536
          35    0.0603   -0.0309    0.0051    0.1625   -0.0017   -0.0178   -0.0015    0.0661
          36   -0.0672   -0.0154   -0.0098   -0.0711    0.0562   -0.0301   -0.0023   -0.0178
          37    0.0773    0.0699    0.0361    0.0069    0.0598   -0.0299   -0.0023   -0.0329
          38   -0.0789    0.0935    0.2573    0.0333    0.0828   -0.0428   -0.0041   -0.0494
          39    0.0674    0.0018   -0.0657    0.0218    0.0558   -0.0252   -0.0006   -0.0328
          40    0.0975    0.0690   -0.2347   -0.0266    0.0610   -0.0308   -0.0029   -0.0355
          41   -0.0536    0.0917   -0.1141   -0.0137    0.0835   -0.0419   -0.0038   -0.0476
          42   -0.0649   -0.0009    0.0627   -0.0198    0.0560   -0.0250   -0.0022   -0.0334
          43    0.0361    0.0521    0.2387    0.0203    0.0404   -0.0190   -0.0018    0.0014
          44   -0.0283    0.0652   -0.1735   -0.0125    0.0555   -0.0252   -0.0013    0.0043
          45    0.0022   -0.0944    0.0038    0.0007   -0.0423    0.0290    0.0038    0.1554


   Root No.       9        10        11        12        13        14        15        16

                 9 A      10 A      11 A      12 A      13 A      14 A      15 A      16 A   

                 821.8     828.4     839.9     863.5     890.1     959.2    1065.0    1074.8
  
           1    0.0250    0.0023    0.0088    0.0013   -0.0001   -0.0191   -0.0050    0.0099
           2   -0.0178   -0.0027   -0.0061   -0.0016    0.0005   -0.0270   -0.0048   -0.0082
           3   -0.0007    0.0160   -0.0016    0.0033   -0.0078   -0.0060   -0.0077   -0.0006
           4   -0.0081    0.0024    0.0083    0.0025   -0.0012   -0.0629    0.0394   -0.0164
           5   -0.0524   -0.0064   -0.0175   -0.0025    0.0010    0.0231   -0.0125    0.0077
           6    0.0060   -0.0598    0.0006    0.0467    0.0448   -0.0014    0.0002    0.0001
           7   -0.0786   -0.0083   -0.0226   -0.0028    0.0026   -0.0036    0.0031    0.0021
           8   -0.0196   -0.0031   -0.0034   -0.0001    0.0003    0.0270   -0.0122   -0.0031
           9   -0.0010   -0.0170    0.0031   -0.0237   -0.0985   -0.0006    0.0001    0.0000
          10   -0.0031   -0.0015   -0.0023   -0.0013    0.0001    0.0190   -0.0076    0.0011
          11    0.0846    0.0093    0.0245    0.0033   -0.0007    0.0023    0.0026   -0.0054
          12   -0.0004    0.0142   -0.0037    0.0230    0.0134    0.0004    0.0003    0.0001
          13    0.0445    0.0058    0.0187    0.0042   -0.0007    0.0309   -0.0066   -0.0174
          14    0.0206    0.0024   -0.0050   -0.0020   -0.0003   -0.0577    0.0369    0.0269
          15    0.0006   -0.0251    0.0106   -0.0764    0.0324   -0.0005   -0.0009   -0.0006
          16    0.0230   -0.0025   -0.0286   -0.0074   -0.0001    0.0114   -0.0269    0.0419
          17   -0.0178    0.0017    0.0202    0.0044   -0.0008    0.0156   -0.0318   -0.0349
          18    0.0005   -0.0008   -0.0003   -0.0004    0.0006   -0.0106    0.0164    0.0027
          19    0.0416    0.0086    0.0305    0.0085   -0.0028   -0.0159    0.0301    0.0090
          20   -0.0204    0.0019   -0.0015   -0.0004   -0.0015    0.0543   -0.0179    0.0216
          21   -0.0336    0.3999   -0.0122   -0.2029   -0.1191    0.0051    0.0007   -0.0020
          22   -0.0431   -0.0088   -0.0149   -0.0034   -0.0052    0.0432   -0.0534    0.0198
          23   -0.1003   -0.0082   -0.0186   -0.0001    0.0015   -0.0901    0.1295   -0.0500
          24   -0.0127    0.2064   -0.0201    0.0505    0.4849    0.0032    0.0002   -0.0003
[...]
 FREQUENCY          1199.54         C  5 -- H  9         +23.1% ( 57.9%)      0.2%
 TRANSITION DIPOLE   0.2267         C  3 -- H  8         +22.7% ( 57.5%)      0.1%
 TRAVEL (Ang.)       0.3706         C  2 -- H  7         +15.6% ( 47.7%)      2.4%
 REDUCED MASS        0.4093         C  2 -- C  5          +8.9% ( 35.9%)     19.2%
 EFFECTIVE MASS      3.0155
 FORCE CONSTANT      0.3470

 VIBRATION         22   22A           ATOM PAIR      ENERGY CONTRIBUTION    RADIAL
 FREQUENCY          1246.75         C 11 -- H 15         +49.3% ( 59.6%)      0.0%
 TRANSITION DIPOLE   0.5184         C 11 -- H 13         +24.2% ( 41.7%)      6.6%
 TRAVEL (Ang.)       0.3768         C 11 -- H 14         +22.7% ( 40.5%)      7.5%
 REDUCED MASS        0.3810         C  6 -- C 11          +3.4% ( 15.6%)      0.1%
 EFFECTIVE MASS      1.3753
 FORCE CONSTANT      0.3489

 VIBRATION         23   23A           ATOM PAIR      ENERGY CONTRIBUTION    RADIAL
 FREQUENCY          1249.15         C 11 -- H 14         +42.1% ( 56.2%)      1.2%
 TRANSITION DIPOLE   0.6304         C 11 -- H 13         +40.6% ( 55.3%)      1.5%
 TRAVEL (Ang.)       0.3687         C 11 -- H 15         +10.7% ( 28.4%)     42.7%
 REDUCED MASS        0.3970         C  6 -- C 11          +4.4% ( 18.2%)      1.9%
 EFFECTIVE MASS      1.5117
 FORCE CONSTANT      0.3650

 VIBRATION         24   24A           ATOM PAIR      ENERGY CONTRIBUTION    RADIAL
 FREQUENCY          1264.49         C  6 -- H 10         +39.6% ( 63.3%)      2.1%
 TRANSITION DIPOLE   0.2269         C  6 -- H 12         +39.3% ( 63.0%)      2.1%
 TRAVEL (Ang.)       0.3144         C  6 -- C 11          +8.8% ( 29.7%)     93.9%
 REDUCED MASS        0.5396         N  1 -- C  6          +7.7% ( 28.0%)      0.9%
 EFFECTIVE MASS      2.2716
 FORCE CONSTANT      0.5083

 VIBRATION         25   25A           ATOM PAIR      ENERGY CONTRIBUTION    RADIAL
 FREQUENCY          1303.73         C  6 -- H 12         +33.8% ( 66.2%)      0.1%
 TRANSITION DIPOLE   0.3644         C  6 -- H 10         +31.9% ( 64.4%)      0.2%
 TRAVEL (Ang.)       0.3081         C  6 -- C 11         +10.4% ( 36.8%)     47.4%
 REDUCED MASS        0.5449         N  1 -- C  6          +6.9% ( 30.0%)     79.9%
 EFFECTIVE MASS      3.0588
 FORCE CONSTANT      0.5457

 VIBRATION         26   26A           ATOM PAIR      ENERGY CONTRIBUTION    RADIAL
 FREQUENCY          1311.75         C  3 -- N  4         +19.2% ( 73.6%)    100.0%
 TRANSITION DIPOLE   1.4279         N  4 -- C  5         +11.0% ( 55.8%)     44.6%
 TRAVEL (Ang.)       0.1441         N  1 -- C  3         +10.4% ( 54.2%)     41.2%
 REDUCED MASS        2.4754         C  2 -- C  3          +9.5% ( 51.7%)     51.2%
 EFFECTIVE MASS     11.6075
 FORCE CONSTANT      2.5095

 VIBRATION         27   27A           ATOM PAIR      ENERGY CONTRIBUTION    RADIAL
 FREQUENCY          1336.24         C 11 -- H 15         +23.8% ( 52.6%)      0.8%
 TRANSITION DIPOLE   0.6343         C 11 -- H 14         +20.8% ( 49.1%)      1.7%
 TRAVEL (Ang.)       0.3728         C 11 -- H 13         +20.7% ( 48.9%)      1.7%
 REDUCED MASS        0.3632         C  6 -- H 10          +6.6% ( 27.6%)      0.1%
 EFFECTIVE MASS      2.8722
 FORCE CONSTANT      0.3821

 VIBRATION         28   28A           ATOM PAIR      ENERGY CONTRIBUTION    RADIAL
 FREQUENCY          1375.88         N  1 -- C  5         +20.0% ( 71.1%)     99.6%
 TRANSITION DIPOLE   0.5585         N  1 -- C  2         +15.3% ( 62.4%)     70.0%
 TRAVEL (Ang.)       0.1273         N  4 -- C  5         +10.8% ( 52.4%)     67.2%
 REDUCED MASS        3.0235         N  1 -- C  6         +10.6% ( 51.8%)      3.9%
 EFFECTIVE MASS     10.9456         N  1 -- C  3         +10.2% ( 50.7%)      0.1%
 FORCE CONSTANT      3.3722

 VIBRATION         29   29A           ATOM PAIR      ENERGY CONTRIBUTION    RADIAL
 FREQUENCY          1439.59         C  2 -- C  3         +19.3% ( 75.3%)     70.3%
 TRANSITION DIPOLE   0.7423         C  3 -- C  5         +12.1% ( 59.8%)     87.0%
 TRAVEL (Ang.)       0.1343         C  2 -- C  5         +11.0% ( 56.8%)     58.1%
 REDUCED MASS        2.5986         C  3 -- N  4         +10.6% ( 55.8%)     93.3%
 EFFECTIVE MASS     11.6879
 FORCE CONSTANT      3.1730

 VIBRATION         30   30A           ATOM PAIR      ENERGY CONTRIBUTION    RADIAL
 FREQUENCY          1494.26         N  1 -- C  2         +19.7% ( 73.3%)     75.4%
 TRANSITION DIPOLE   1.4908         N  1 -- C  6         +18.4% ( 71.0%)     99.4%
 TRAVEL (Ang.)       0.1008         N  1 -- C  5         +17.1% ( 68.3%)     64.1%
 REDUCED MASS        4.4455         N  1 -- C  3         +16.0% ( 66.1%)     82.6%
 EFFECTIVE MASS     12.5823
 FORCE CONSTANT      5.8481

 VIBRATION         31   31A           ATOM PAIR      ENERGY CONTRIBUTION    RADIAL
 FREQUENCY          1518.71         C  2 -- C  3         +15.4% ( 64.4%)     95.4%
 TRANSITION DIPOLE   0.8504         N  4 -- C  5         +13.0% ( 59.2%)     98.0%
 TRAVEL (Ang.)       0.1415         C  3 -- C  5         +10.0% ( 51.8%)     47.5%
 REDUCED MASS        2.2164         C  2 -- C  5          +9.7% ( 51.0%)      0.7%
 EFFECTIVE MASS     11.9899
 FORCE CONSTANT      3.0119

 VIBRATION         32   32A           ATOM PAIR      ENERGY CONTRIBUTION    RADIAL
 FREQUENCY          2647.42         C  6 -- H 12         +46.1% ( 70.3%)     98.1%
 TRANSITION DIPOLE   0.3513         C  6 -- H 10         +45.4% ( 69.8%)     98.0%
 TRAVEL (Ang.)       0.2412         C 11 -- H 13          +3.3% ( 18.7%)     98.2%
 REDUCED MASS        0.4377         C 11 -- H 14          +3.2% ( 18.7%)     98.2%
 EFFECTIVE MASS      1.4375
 FORCE CONSTANT      1.8075

 VIBRATION         33   33A           ATOM PAIR      ENERGY CONTRIBUTION    RADIAL
 FREQUENCY          2691.60         C 11 -- H 14         +48.0% ( 71.3%)     97.9%
 TRANSITION DIPOLE   0.7394         C 11 -- H 13         +43.8% ( 68.2%)     97.3%
 TRAVEL (Ang.)       0.2383         C  6 -- H 12          +3.4% ( 18.9%)     97.9%
 REDUCED MASS        0.4413         C  6 -- H 10          +2.8% ( 17.3%)     97.1%
 EFFECTIVE MASS      1.4687
 FORCE CONSTANT      1.8837

 VIBRATION         34   34A           ATOM PAIR      ENERGY CONTRIBUTION    RADIAL
 FREQUENCY          2692.89         C 11 -- H 15         +61.2% ( 80.5%)     99.5%
 TRANSITION DIPOLE   0.5701         C 11 -- H 13         +18.6% ( 44.4%)     88.0%
 TRAVEL (Ang.)       0.2373         C 11 -- H 14         +14.4% ( 39.1%)     83.7%
 REDUCED MASS        0.4448         C  6 -- H 10          +2.7% ( 16.8%)     98.3%
 EFFECTIVE MASS      1.4494
 FORCE CONSTANT      1.9003

 VIBRATION         35   35A           ATOM PAIR      ENERGY CONTRIBUTION    RADIAL
 FREQUENCY          2719.74         C  6 -- H 10         +46.9% ( 67.6%)     96.5%
 TRANSITION DIPOLE   0.6099         C  6 -- H 12         +46.0% ( 67.0%)     96.4%
 TRAVEL (Ang.)       0.2398         C 11 -- H 15          +5.0% ( 22.0%)     98.7%
 REDUCED MASS        0.4312         C  6 -- C 11          +0.5% (  7.0%)     52.8%
 EFFECTIVE MASS      1.2501
 FORCE CONSTANT      1.8792

 VIBRATION         36   36A           ATOM PAIR      ENERGY CONTRIBUTION    RADIAL
 FREQUENCY          2769.22         C  5 -- H  9         +88.3% ( 96.6%)    100.0%
 TRANSITION DIPOLE   1.2245         C  3 -- H  8          +3.8% ( 20.1%)    100.0%
 TRAVEL (Ang.)       0.1730         C  2 -- H  7          +2.3% ( 15.6%)    100.0%
 REDUCED MASS        0.8135         C  2 -- C  5          +1.3% ( 11.8%)     77.2%
 EFFECTIVE MASS      1.4268
 FORCE CONSTANT      3.6757

 VIBRATION         37   37A           ATOM PAIR      ENERGY CONTRIBUTION    RADIAL
 FREQUENCY          2780.51         C  3 -- H  8         +71.4% ( 86.7%)    100.0%
 TRANSITION DIPOLE   0.9192         C  2 -- H  7         +22.5% ( 48.7%)    100.0%
 TRAVEL (Ang.)       0.2051         C  3 -- C  5          +1.1% ( 10.7%)     85.9%
 REDUCED MASS        0.5767         C  2 -- C  3          +1.1% ( 10.6%)      4.9%
 EFFECTIVE MASS      1.4166
 FORCE CONSTANT      2.6267

 VIBRATION         38   38A           ATOM PAIR      ENERGY CONTRIBUTION    RADIAL
 FREQUENCY          2788.05         C 11 -- H 14         +32.0% ( 54.6%)     95.6%
 TRANSITION DIPOLE   0.4906         C 11 -- H 13         +31.6% ( 54.3%)     95.5%
 TRAVEL (Ang.)       0.2842         C 11 -- H 15         +31.2% ( 53.9%)     95.3%
 REDUCED MASS        0.2995         C  2 -- H  7          +4.1% ( 19.4%)    100.0%
 EFFECTIVE MASS      1.1590
 FORCE CONSTANT      1.3719

 VIBRATION         39   39A           ATOM PAIR      ENERGY CONTRIBUTION    RADIAL
 FREQUENCY          2792.88         C  2 -- H  7         +66.8% ( 83.6%)    100.0%
 TRANSITION DIPOLE   0.7447         C  3 -- H  8         +19.4% ( 45.1%)    100.0%
 TRAVEL (Ang.)       0.2198         C  5 -- H  9          +5.1% ( 23.0%)    100.0%
 REDUCED MASS        0.4999         C  2 -- C  3          +1.6% ( 13.0%)     91.3%
 EFFECTIVE MASS      1.4983
 FORCE CONSTANT      2.2974

      SYMMETRY NUMBER FOR POINT-GROUP C1  =  1


          SYSTEM IS A GROUND STATE


 All coordinates are Cartesian
 emi


          MOLECULE IS NOT LINEAR

          THERE ARE 39 GENUINE VIBRATIONS IN THIS SYSTEM
          THIS THERMODYNAMICS CALCULATION IS LIMITED TO
          MOLECULES WHICH HAVE NO INTERNAL ROTATIONS




                    CALCULATED THERMODYNAMIC PROPERTIES
                                          *
   TEMP. (K)   PARTITION FUNCTION   H.O.F.    ENTHALPY  HEAT CAPACITY ENTROPY
                                   KCAL/MOL   CAL/MOLE    CAL/K/MOL  CAL/K/MOL


 298.00  VIB.     0.5660D+02                  2559.8140    18.6052    16.6102
         ROT.     0.1892D+06                   888.2803     2.9808    27.1262
         INT.     0.1071D+08                  3448.0943    21.5860    43.7364
         TRA.     0.9112D+27                  1480.4672     4.9680    39.5982
         TOT.                       25.718    4928.5615    26.5540    83.3346

 200.00  VIB.     0.1405D+02                  1119.5939    11.0848    10.8493
         ROT.     0.1040D+06                   596.1613     2.9808    25.9375
         INT.     0.1461D+07                  1715.7552    14.0656    36.7868
         TRA.     0.5010D+27                   993.6021     4.9680    37.6170
         TOT.                       23.498    2709.3573    19.0336    74.4039

 210.00  VIB.     0.1617D+02                  1233.7843    11.7578    11.4063
         ROT.     0.1119D+06                   625.9693     2.9808    26.0829
         INT.     0.1810D+07                  1859.7537    14.7386    37.4893
         TRA.     0.5390D+27                  1043.2822     4.9680    37.8594
         TOT.                       23.692    2903.0359    19.7066    75.3487

 220.00  VIB.     0.1862D+02                  1354.8382    12.4573    11.9694
         ROT.     0.1200D+06                   655.7774     2.9808    26.2216
         INT.     0.2234D+07                  2010.6156    15.4381    38.1909
         TRA.     0.5780D+27                  1092.9623     4.9680    38.0905
         TOT.                       23.893    3103.5779    20.4061    76.2815

 230.00  VIB.     0.2144D+02                  1483.0134    13.1818    12.5390
         ROT.     0.1283D+06                   685.5855     2.9808    26.3541
         INT.     0.2750D+07                  2168.5988    16.1626    38.8931
         TRA.     0.6179D+27                  1142.6424     4.9680    38.3114
         TOT.                       24.100    3311.2413    21.1306    77.2045

 240.00  VIB.     0.2469D+02                  1618.5521    13.9296    13.1157
         ROT.     0.1367D+06                   715.3935     2.9808    26.4810
         INT.     0.3376D+07                  2333.9456    16.9104    39.5967
         TRA.     0.6586D+27                  1192.3226     4.9680    38.5228
         TOT.                       24.315    3526.2681    21.8785    78.1195

 250.00  VIB.     0.2845D+02                  1761.6767    14.6986    13.6999
         ROT.     0.1454D+06                   745.2016     2.9808    26.6026
         INT.     0.4135D+07                  2506.8783    17.6794    40.3025
         TRA.     0.7002D+27                  1242.0027     4.9680    38.7256
         TOT.                       24.538    3748.8809    22.6474    79.0281

 260.00  VIB.     0.3279D+02                  1912.5869    15.4864    14.2917
         ROT.     0.1542D+06                   775.0097     2.9808    26.7195
         INT.     0.5055D+07                  2687.5966    18.4672    41.0112
         TRA.     0.7426D+27                  1291.6828     4.9680    38.9205
         TOT.                       24.768    3979.2793    23.4352    79.9317

 270.00  VIB.     0.3782D+02                  2071.4578    16.2903    14.8912
         ROT.     0.1631D+06                   804.8177     2.9808    26.8320
         INT.     0.6170D+07                  2876.2755    19.2711    41.7232
         TRA.     0.7859D+27                  1341.3629     4.9680    39.1080
         TOT.                       25.007    4217.6384    24.2391    80.8312

 280.00  VIB.     0.4365D+02                  2238.4383    17.1078    15.4983
         ROT.     0.1723D+06                   834.6258     2.9808    26.9404
         INT.     0.7520D+07                  3073.0641    20.0886    42.4388
         TRA.     0.8299D+27                  1391.0430     4.9680    39.2886
         TOT.                       25.253    4464.1071    25.0567    81.7274

 290.00  VIB.     0.5041D+02                  2413.6510    17.9363    16.1131
         ROT.     0.1816D+06                   864.4339     2.9808    27.0450
         INT.     0.9154D+07                  3278.0849    20.9171    43.1581
         TRA.     0.8748D+27                  1440.7231     4.9680    39.4630
         TOT.                       25.508    4718.8080    25.8851    82.6211

 300.00  VIB.     0.5826D+02                  2597.1923    18.7731    16.7352
         ROT.     0.1911D+06                   894.2419     2.9808    27.1461
         INT.     0.1113D+08                  3491.4343    21.7539    43.8813
         TRA.     0.9204D+27                  1490.4032     4.9680    39.6314
         TOT.                       25.771    4981.8374    26.7219    83.5127

 310.00  VIB.     0.6740D+02                  2789.1330    19.6158    17.3645
         ROT.     0.2007D+06                   924.0500     2.9808    27.2438
         INT.     0.1353D+08                  3713.1830    22.5966    44.6084
         TRA.     0.9668D+27                  1540.0833     4.9680    39.7943
         TOT.                       26.042    5253.2663    27.5646    84.4027

 320.00  VIB.     0.7803D+02                  2989.5194    20.4619    18.0007
         ROT.     0.2105D+06                   953.8580     2.9808    27.3385
         INT.     0.1643D+08                  3943.3775    23.4427    45.3391
         TRA.     0.1014D+28                  1589.7634     4.9680    39.9520
         TOT.                       26.322    5533.1409    28.4107    85.2912

 330.00  VIB.     0.9042D+02                  3198.3751    21.3093    18.6433
         ROT.     0.2204D+06                   983.6661     2.9808    27.4302
         INT.     0.1993D+08                  4182.0412    24.2901    46.0735
         TRA.     0.1062D+28                  1639.4435     4.9680    40.1049
         TOT.                       26.611    5821.4847    29.2581    86.1784

 340.00  VIB.     0.1049D+03                  3415.7021    22.1558    19.2920
         ROT.     0.2305D+06                  1013.4742     2.9808    27.5192
         INT.     0.2418D+08                  4429.1762    25.1366    46.8112
         TRA.     0.1110D+28                  1689.1236     4.9680    40.2532
         TOT.                       26.907    6118.2999    30.1047    87.0644

 350.00  VIB.     0.1217D+03                  3641.4830    22.9998    19.9464
         ROT.     0.2408D+06                  1043.2822     2.9808    27.6056
         INT.     0.2931D+08                  4684.7653    25.9806    47.5520
         TRA.     0.1160D+28                  1738.8037     4.9680    40.3972
         TOT.                       27.213    6423.5690    30.9486    87.9493

 360.00  VIB.     0.1414D+03                  3875.6829    23.8394    20.6061
         ROT.     0.2512D+06                  1073.0903     2.9808    27.6896
         INT.     0.3553D+08                  4948.7732    26.8202    48.2957
         TRA.     0.1210D+28                  1788.4838     4.9680    40.5372
         TOT.                       27.526    6737.2570    31.7882    88.8329

 370.00  VIB.     0.1645D+03                  4118.2507    24.6731    21.2707
         ROT.     0.2617D+06                  1102.8984     2.9808    27.7712
         INT.     0.4305D+08                  5221.1491    27.6539    49.0419
         TRA.     0.1261D+28                  1838.1639     4.9680    40.6733
         TOT.                       27.848    7059.3130    32.6220    89.7152

 380.00  VIB.     0.1914D+03                  4369.1218    25.4998    21.9397
         ROT.     0.2724D+06                  1132.7064     2.9808    27.8507
         INT.     0.5215D+08                  5501.8282    28.4806    49.7904
         TRA.     0.1312D+28                  1887.8440     4.9680    40.8058
         TOT.                       28.179    7389.6723    33.4486    90.5962

 390.00  VIB.     0.2230D+03                  4628.2190    26.3182    22.6126
         ROT.     0.2832D+06                  1162.5145     2.9808    27.9282
         INT.     0.6317D+08                  5790.7335    29.2990    50.5408
         TRA.     0.1364D+28                  1937.5242     4.9680    40.9348
         TOT.                       28.517    7728.2576    34.2670    91.4756

 400.00  VIB.     0.2600D+03                  4895.4547    27.1273    23.2892
         ROT.     0.2942D+06                  1192.3226     2.9808    28.0036
         INT.     0.7650D+08                  6087.7773    30.1082    51.2928
         TRA.     0.1417D+28                  1987.2043     4.9680    41.0606
         TOT.                       28.864    8074.9815    35.0762    92.3534

   *: NOTE: HEATS OF FORMATION ARE RELATIVE TO THE
            ELEMENTS IN THEIR STANDARD STATE AT 298K
              (=  Standard Enthalpy of Formation).

            Hvib:  Zero-point energy is not included.
                   frequencies of less than zero cm-1 are not included.
            Hrot = (3/2)RT
            Htra = (3/2)RT + pV = (5/2)RT

            Heat capacity is Cp, not Cv

          For more information, see: HTTP://OpenMOPAC.net/Manual/thermochemistry.html


           FORCE CONSTANT IN CARTESIAN COORDINATES (Millidynes/A)

    ATOM   CHEMICAL       X               Y               Z
   NUMBER   SYMBOL  FORCE CONSTANT  FORCE CONSTANT  FORCE CONSTANT

      1       N       10.977568       11.835178        1.376430
      2       C        8.703435       11.368996        1.846223
      3       C       10.564026        9.151757        2.100023
      4       N        8.908229        8.608955        1.233874
      5       C       11.918817        7.640963        1.972523
      6       C        6.941036        7.129377        6.964429
      7       H        1.881389        3.201411        0.322273
      8       H        3.819756        1.237942        0.351607
      9       H        4.001807        1.047617        0.339134
     10       H        1.262506        2.685475        1.535584
     11       C        6.346142        6.436620        7.018224
     12       H        3.178567        0.835352        1.467130
     13       H        3.081015        0.705380        1.580449
     14       H        1.277151        2.439371        1.651557
     15       H        1.755787        2.887002        0.704778

 **********************
 *                    *
 * JOB ENDED NORMALLY *
 *                    *
 **********************



 TOTAL JOB TIME:             1.42 SECONDS

 == MOPAC DONE ==
