 *******************************************************************************
 **                                                                           **
 **                              MOPAC v22.1.1                                **
 **                                                                           **
 *******************************************************************************
 **          Digital Object Identifier (DOI): 10.5281/zenodo.6511958          **
 **    Visit the DOI location for information on how to cite this program.    **
 *******************************************************************************

                              PM6 CALCULATION RESULTS

 *******************************************************************************
 *  CALCULATION DONE:                                Tue May  7 17:20:40 2024  *
 *  PM6        - The PM6 Hamiltonian to be used
 *  MMOK       - APPLY MM CORRECTION TO CONH BARRIER
 *  STATIC     - CALCULATE STATIC FIELD POLARIZABILITIES
 *  POLAR      - CALCULATE FIRST, SECOND AND THIRD-ORDER POLARIZABILITIES
 *  PRECISE    - TIGHTER CRITERIA TO BE USED
 *  XYZ        - CARTESIAN COORDINATE SYSTEM TO BE USED
 *  T=         - A TIME OF 172800.0 SECONDS REQUESTED
 *  DUMP=N     - RESTART FILE WRITTEN EVERY 7200.0 SECONDS REQUESTED
 *  CYCLES=    - DO A MAXIMUM OF 8000 STEPS
 *  ENPART     - ENERGY TO BE PARTITIONED INTO COMPONENTS
 *  PRTXYZ     - PRINT CARTESIAN COORDINATES
 *  DISP       - PRINT DISPERSION AND HYDROGEN BOND ENERGIES
 *  BONDS      - FINAL BOND-ORDER MATRIX TO BE PRINTED
 *  LARGE      - EXPANDED OUTPUT TO BE PRINTED
 *  SUPER      - PRINT SUPERDELOCALIZABILITIES
 *  ALLVEC     - PRINT ALL EIGENVECTORS
 *******************************************************************************
PM6 PRECISE POLAR MMOK XYZ ENPART STATIC SUPER BONDS LARGE PRTXYZ DISP ALLVEC CYCLES = 8000
 buscn
 All coordinates are Cartesian
   ATOM   CHEMICAL          X               Y               Z
  NUMBER   SYMBOL      (ANGSTROMS)     (ANGSTROMS)     (ANGSTROMS)
 
     1       C          2.72700000  *  -0.48900000  *   0.00000000  *
     2       N          3.59100000  *  -1.27200000  *   0.00000000  *
     3       S          1.50000000  *   0.68800000  *   0.00000000  *
     4       C          0.00000000  *  -0.41200000  *   0.00000000  *
     5       C         -1.25600000  *   0.45900000  *   0.00000000  *
     6       C         -2.53700000  *  -0.38900000  *   0.00000000  *
     7       C         -3.80800000  *   0.46400000  *   0.00000000  *
     8       H          0.04900000  *  -1.04400000  *   0.89000000  *
     9       H          0.04900000  *  -1.04400000  *  -0.89000000  *
    10       H         -1.25100000  *   1.11400000  *  -0.88100000  *
    11       H         -1.25100000  *   1.11400000  *   0.88100000  *
    12       H         -2.53500000  *  -1.04800000  *   0.87800000  *
    13       H         -2.53500000  *  -1.04800000  *  -0.87800000  *
    14       H         -4.70500000  *  -0.16400000  *   0.00000000  *
    15       H         -3.85300000  *   1.10900000  *   0.88400000  *
    16       H         -3.85300000  *   1.10900000  *  -0.88400000  *
 


          CARTESIAN COORDINATES 

    NO.       ATOM           X           Y           Z

     1         C          2.7270     -0.4890      0.0000
     2         N          3.5910     -1.2720      0.0000
     3         S          1.5000      0.6880      0.0000
     4         C          0.0000     -0.4120      0.0000
     5         C         -1.2560      0.4590      0.0000
     6         C         -2.5370     -0.3890      0.0000
     7         C         -3.8080      0.4640      0.0000
     8         H          0.0490     -1.0440      0.8900
     9         H          0.0490     -1.0440     -0.8900
    10         H         -1.2510      1.1140     -0.8810
    11         H         -1.2510      1.1140      0.8810
    12         H         -2.5350     -1.0480      0.8780
    13         H         -2.5350     -1.0480     -0.8780
    14         H         -4.7050     -0.1640      0.0000
    15         H         -3.8530      1.1090      0.8840
    16         H         -3.8530      1.1090     -0.8840

 General Reference for PM6:
 "Optimization of Parameters for Semiempirical Methods V: Modification of NDDO Approximations
 and Application to 70 Elements", J. J. P. Stewart, J. Mol. Mod., 13, 1173-1213 (2007)
 URL: https://link.springer.com/article/10.1007/s00894-007-0233-4

           Empirical Formula: C5 H9 N S  =    16 atoms



      MOLECULAR POINT GROUP   :   Cs  


      RHF CALCULATION, NO. OF DOUBLY OCCUPIED LEVELS = 20


          Geometry optimization using EF

          DIAGONAL MATRIX USED AS START HESSIAN

 CYCLE:     1 TIME:   0.027 TIME LEFT:  2.00D  GRAD.:    49.664 HEAT:  18.48550
 CYCLE:     2 TIME:   0.082 TIME LEFT:  2.00D  GRAD.:    27.944 HEAT:  18.18175
 CYCLE:     3 TIME:   0.016 TIME LEFT:  2.00D  GRAD.:    13.332 HEAT:  17.89289
 CYCLE:     4 TIME:   0.016 TIME LEFT:  2.00D  GRAD.:    11.906 HEAT:  17.73105
 CYCLE:     5 TIME:   0.016 TIME LEFT:  2.00D  GRAD.:    13.001 HEAT:  17.62786
 CYCLE:     6 TIME:   0.020 TIME LEFT:  2.00D  GRAD.:    14.216 HEAT:  17.55348
 CYCLE:     7 TIME:   0.016 TIME LEFT:  2.00D  GRAD.:    15.400 HEAT:  17.50244
 CYCLE:     8 TIME:   0.031 TIME LEFT:  2.00D  GRAD.:    11.284 HEAT:  17.43623
 CYCLE:     9 TIME:   0.016 TIME LEFT:  2.00D  GRAD.:    11.079 HEAT:  17.43529
 CYCLE:    10 TIME:   0.016 TIME LEFT:  2.00D  GRAD.:    10.306 HEAT:  17.40832
 CYCLE:    11 TIME:   0.016 TIME LEFT:  2.00D  GRAD.:     8.786 HEAT:  17.40001
 CYCLE:    12 TIME:   0.031 TIME LEFT:  2.00D  GRAD.:     4.839 HEAT:  17.37083
 CYCLE:    13 TIME:   0.031 TIME LEFT:  2.00D  GRAD.:     3.002 HEAT:  17.36467
 CYCLE:    14 TIME:   0.016 TIME LEFT:  2.00D  GRAD.:     4.063 HEAT:  17.36437
 CYCLE:    15 TIME:   0.012 TIME LEFT:  2.00D  GRAD.:     4.222 HEAT:  17.35814
 CYCLE:    16 TIME:   0.020 TIME LEFT:  2.00D  GRAD.:     2.531 HEAT:  17.35123
 CYCLE:    17 TIME:   0.016 TIME LEFT:  2.00D  GRAD.:     3.412 HEAT:  17.34366
 CYCLE:    18 TIME:   0.016 TIME LEFT:  2.00D  GRAD.:     4.183 HEAT:  17.33095
 CYCLE:    19 TIME:   0.016 TIME LEFT:  2.00D  GRAD.:     4.819 HEAT:  17.31011
 CYCLE:    20 TIME:   0.016 TIME LEFT:  2.00D  GRAD.:     2.357 HEAT:  17.30086
 CYCLE:    21 TIME:   0.016 TIME LEFT:  2.00D  GRAD.:     0.619 HEAT:  17.29830
 CYCLE:    22 TIME:   0.016 TIME LEFT:  2.00D  GRAD.:     1.171 HEAT:  17.29853
 CYCLE:    23 TIME:   0.016 TIME LEFT:  2.00D  GRAD.:     0.332 HEAT:  17.29788
 CYCLE:    24 TIME:   0.016 TIME LEFT:  2.00D  GRAD.:     0.233 HEAT:  17.29782
 CYCLE:    25 TIME:   0.016 TIME LEFT:  2.00D  GRAD.:     0.754 HEAT:  17.29798
 CYCLE:    26 TIME:   0.016 TIME LEFT:  2.00D  GRAD.:     0.075 HEAT:  17.29776
 CYCLE:    27 TIME:   0.016 TIME LEFT:  2.00D  GRAD.:     0.101 HEAT:  17.29775
 CYCLE:    28 TIME:   0.016 TIME LEFT:  2.00D  GRAD.:     0.293 HEAT:  17.29778
 CYCLE:    29 TIME:   0.016 TIME LEFT:  2.00D  GRAD.:     0.057 HEAT:  17.29774
 CYCLE:    30 TIME:   0.012 TIME LEFT:  2.00D  GRAD.:     0.040 HEAT:  17.29774

     GRADIENT =  0.04049 IS LESS THAN CUTOFF =  0.05000



 -------------------------------------------------------------------------------
 PM6 PRECISE POLAR MMOK XYZ ENPART STATIC SUPER BONDS LARGE PRTXYZ DISP ALLVEC CYCLES = 8000
 buscn
 All coordinates are Cartesian


     GEOMETRY OPTIMISED USING EIGENVECTOR FOLLOWING (EF).     
     SCF FIELD WAS ACHIEVED                                   


                              PM6 CALCULATION
                                                       MOPAC v22.1.1 MacOS
                                                       Tue May  7 17:20:41 2024




          FINAL HEAT OF FORMATION =         17.29774 KCAL/MOL =      72.37373 KJ/MOL

          TOTAL ENERGY            =     -25097.74138 KCAL/MOL = ELECTRONIC ENERGY + CORE-CORE REPULSION
          ENERGY OF ATOMS         =      25115.03911 KCAL/MOL
                              SUM =         17.29774 KCAL/MOL
          DISPERSION ENERGY       =          0.00000 KCAL/MOL
                              SUM =         17.29774 KCAL/MOL = FINAL HEAT OF FORMATION



          TOTAL ENERGY            =      -1088.34107 EV
          ELECTRONIC ENERGY       =      -4567.30022 EV 
          CORE-CORE REPULSION     =       3478.95914 EV
          COSMO AREA              =        166.28 SQUARE ANGSTROMS
          COSMO VOLUME            =        156.47 CUBIC ANGSTROMS

          GRADIENT NORM           =          0.04049          =       0.01012 PER ATOM
          IONIZATION POTENTIAL    =          9.454779 EV
          HOMO LUMO ENERGIES (EV) =         -9.455 -0.398
          NO. OF FILLED LEVELS    =         20
          MOLECULAR WEIGHT        =        115.1928         POINT GROUP:  Cs  

          MOLECULAR DIMENSIONS (Angstroms)

            Atom       Atom       Distance
            H    14    N     2     8.37619
            H    12    H    10     2.91774
            H    13    H    11     2.81461


          SCF CALCULATIONS        =         38
 
          WALL-CLOCK TIME         =      0.617 SECONDS
          COMPUTATION TIME        =      4.580 SECONDS




   ATOM   CHEMICAL          X               Y               Z
  NUMBER   SYMBOL      (ANGSTROMS)     (ANGSTROMS)     (ANGSTROMS)
 
     1       C          2.71274579  *  -0.46575005  *  -0.00000135  *
     2       N          3.62238520  *  -1.17721022  *  -0.00000473  *
     3       S          1.43364111  *   0.64302834  *   0.00000033  *
     4       C         -0.01138164  *  -0.47210910  *   0.00001377  *
     5       C         -1.23243759  *   0.43879327  *   0.00000070  *
     6       C         -2.52772252  *  -0.39069097  *  -0.00000072  *
     7       C         -3.76269045  *   0.50532668  *  -0.00001208  *
     8       H          0.00809731  *  -1.12925894  *   0.89013611  *
     9       H          0.00809890  *  -1.12926560  *  -0.89014606  *
    10       H         -1.22575296  *   1.10798303  *  -0.88593905  *
    11       H         -1.22575303  *   1.10798292  *   0.88594071  *
    12       H         -2.54972089  *  -1.05772924  *   0.88462831  *
    13       H         -2.54972315  *  -1.05772547  *  -0.88462396  *
    14       H         -4.68307718  *  -0.09100686  *   0.00000183  *
    15       H         -3.79559537  *   1.15373667  *   0.88350671  *
    16       H         -3.79559537  *   1.15372775  *  -0.88348997  *

                             CARTESIAN COORDINATES

   1    C        2.712745790    -0.465750047    -0.000001346
   2    N        3.622385203    -1.177210225    -0.000004730
   3    S        1.433641110     0.643028340     0.000000332
   4    C       -0.011381641    -0.472109102     0.000013768
   5    C       -1.232437594     0.438793274     0.000000705
   6    C       -2.527722520    -0.390690968    -0.000000716
   7    C       -3.762690448     0.505326680    -0.000012084
   8    H        0.008097314    -1.129258943     0.890136110
   9    H        0.008098903    -1.129265601    -0.890146056
  10    H       -1.225752955     1.107983032    -0.885939049
  11    H       -1.225753027     1.107982916     0.885940715
  12    H       -2.549720893    -1.057729238     0.884628305
  13    H       -2.549723154    -1.057725473    -0.884623955
  14    H       -4.683077181    -0.091006860     0.000001834
  15    H       -3.795595366     1.153736673     0.883506705
  16    H       -3.795595368     1.153727749    -0.883489975


           Empirical Formula: C5 H9 N S  =    16 atoms



      MOLECULAR POINT GROUP   :   Cs  


                EIGENVECTORS  


   Root No.       1         2         3         4         5         6         7         8

                 1 a'      2 a'      3 a'      4 a'      5 a'      6 a'      7 a'      1 a"  

               -31.928   -30.275   -28.402   -25.450   -21.858   -20.887   -17.307   -16.895
  
  S   C    1    0.5653   -0.0459   -0.0620    0.1146   -0.1211   -0.0099    0.4191   -0.0000
  Px  C    1    0.1605   -0.2541    0.1474   -0.1262    0.0747    0.0245   -0.2105    0.0000
  Py  C    1   -0.1319    0.1807   -0.1158    0.1236   -0.1191    0.0111    0.2043   -0.0000
  Pz  C    1   -0.0000    0.0000   -0.0000    0.0000    0.0000   -0.0000    0.0000    0.0616
  S   N    2    0.5991   -0.3165    0.1348   -0.1027    0.0760    0.0148   -0.3348    0.0000
  Px  N    2   -0.2642    0.0957   -0.0260    0.0060    0.0034    0.0092   -0.1619    0.0000
  Py  N    2    0.2042   -0.0804    0.0200    0.0048   -0.0309    0.0081    0.1544   -0.0000
  Pz  N    2    0.0000   -0.0000    0.0000   -0.0000    0.0000   -0.0000    0.0000    0.0433
  S   S    3    0.3393    0.5939   -0.3811    0.2903   -0.1595    0.0756   -0.3121    0.0000
  Px  S    3    0.0569   -0.0756   -0.0510    0.1634   -0.1938   -0.0206    0.4218   -0.0000
  Py  S    3   -0.1276   -0.1469    0.0849   -0.0351   -0.0455    0.0710   -0.1772    0.0000
  Pz  S    3    0.0000    0.0000   -0.0000   -0.0000    0.0000   -0.0000    0.0000    0.1311
  x2  S    3    0.0058    0.0098   -0.0001   -0.0052   -0.0033    0.0124    0.0013   -0.0000
  xz  S    3   -0.0000   -0.0000    0.0000    0.0000   -0.0000    0.0000   -0.0000   -0.0157
  z2  S    3   -0.0176   -0.0234    0.0117   -0.0032   -0.0034    0.0031   -0.0353    0.0000
  yz  S    3   -0.0000   -0.0000    0.0000    0.0000   -0.0000    0.0000   -0.0000   -0.0154
  xy  S    3   -0.0132    0.0066    0.0109   -0.0347    0.0541   -0.0084   -0.1181    0.0000
  S   C    4    0.1311    0.4032    0.0485   -0.3568    0.4316   -0.2028    0.0446   -0.0000
  Px  C    4    0.0456    0.0343   -0.1655    0.1592    0.0604   -0.0589   -0.1645    0.0000
  Py  C    4    0.0261    0.0828   -0.0035   -0.0130   -0.1258    0.2522   -0.2935    0.0000
  Pz  C    4   -0.0000    0.0000    0.0000   -0.0000    0.0000   -0.0000    0.0000    0.4238
  S   C    5    0.0571    0.2966    0.3593   -0.3477   -0.2049    0.3692    0.0902   -0.0000
  Px  C    5    0.0244    0.0587   -0.1200   -0.1415    0.2240    0.0616   -0.1005   -0.0000
  Py  C    5   -0.0117   -0.0508   -0.0534    0.0534   -0.0477    0.2923   -0.0615    0.0000
  Pz  C    5    0.0000    0.0000   -0.0000   -0.0000    0.0000   -0.0000    0.0000    0.4684
  S   C    6    0.0229    0.1781    0.4899    0.1363   -0.3188   -0.3592   -0.0895    0.0000
  Px  C    6    0.0108    0.0493    0.0007   -0.2347   -0.1528    0.0456    0.1330   -0.0000
  Py  C    6    0.0032    0.0280    0.0759    0.0325    0.0420    0.2647    0.1219   -0.0000
  Pz  C    6    0.0000   -0.0000   -0.0000   -0.0000    0.0000   -0.0000    0.0000    0.3975
  S   C    7    0.0082    0.0909    0.3870    0.4776    0.3483    0.1579    0.0255    0.0000
  Px  C    7    0.0044    0.0358    0.0940   -0.0146   -0.1791   -0.0838   -0.0199   -0.0000
  Py  C    7   -0.0014   -0.0140   -0.0513   -0.0215    0.0982    0.1771    0.1270   -0.0000
  Pz  C    7   -0.0000   -0.0000   -0.0000   -0.0000   -0.0000   -0.0000    0.0000    0.2531
  S   H    8    0.0531    0.1571    0.0272   -0.1557    0.2364   -0.1829    0.1324    0.2273
  S   H    9    0.0531    0.1571    0.0272   -0.1557    0.2364   -0.1829    0.1324   -0.2273
  S   H   10    0.0237    0.1222    0.1476   -0.1349   -0.1043    0.2707    0.0159   -0.2480
  S   H   11    0.0237    0.1222    0.1476   -0.1349   -0.1043    0.2707    0.0159    0.2480
  S   H   12    0.0104    0.0756    0.2009    0.0522   -0.1521   -0.2592   -0.0891    0.2147
  S   H   13    0.0104    0.0756    0.2009    0.0522   -0.1521   -0.2592   -0.0891   -0.2147
  S   H   14    0.0027    0.0323    0.1543    0.2303    0.2140    0.0576   -0.0212    0.0000
  S   H   15    0.0038    0.0395    0.1640    0.2098    0.1939    0.1379    0.0604    0.1361
  S   H   16    0.0038    0.0395    0.1640    0.2099    0.1939    0.1379    0.0604   -0.1361


   Root No.       9        10        11        12        13        14        15        16

                 8 a'      2 a"      9 a'      3 a"     10 a'     11 a'      4 a"     12 a'  

               -15.171   -15.022   -14.662   -14.215   -13.991   -13.263   -12.904   -12.633
  
  S   C    1   -0.1163    0.0000   -0.1447   -0.0000    0.0118    0.1104    0.0000   -0.0016
  Px  C    1   -0.0735    0.0000    0.2806    0.0000   -0.2795    0.2295    0.0000   -0.1288
  Py  C    1   -0.1571    0.0001    0.3385    0.0000   -0.3524    0.0171   -0.0000   -0.0238
  Pz  C    1    0.0000    0.2352   -0.0000    0.6333    0.0000    0.0000   -0.0913    0.0000
  S   N    2    0.1215   -0.0000    0.1970    0.0000   -0.0106   -0.3482   -0.0000    0.1045
  Px  N    2   -0.0013    0.0000    0.3997    0.0000   -0.2945   -0.2048   -0.0000    0.0217
  Py  N    2   -0.1867    0.0001    0.2050    0.0000   -0.3585    0.3942    0.0000   -0.1813
  Pz  N    2    0.0000    0.2095   -0.0000    0.6385    0.0000    0.0000   -0.1175    0.0000
  S   S    3    0.0364    0.0000    0.1878    0.0000    0.0279   -0.0670    0.0000    0.0238
  Px  S    3   -0.0896    0.0000    0.1390    0.0000   -0.0648   -0.2210   -0.0000    0.1058
  Py  S    3   -0.0707    0.0000    0.2445    0.0000   -0.0453   -0.0293    0.0000    0.0391
  Pz  S    3    0.0000    0.2187   -0.0000    0.1883    0.0000   -0.0000    0.0889   -0.0000
  x2  S    3   -0.0390    0.0000    0.0203    0.0000   -0.0222    0.0414    0.0000    0.0049
  xz  S    3   -0.0000   -0.0062   -0.0000    0.0476    0.0000    0.0000   -0.0221    0.0000
  z2  S    3    0.0090    0.0000    0.0343    0.0000    0.0023   -0.0193    0.0000    0.0031
  yz  S    3   -0.0000   -0.0262    0.0000   -0.0223   -0.0000    0.0000   -0.0122    0.0000
  xy  S    3    0.0410   -0.0000   -0.0056    0.0000   -0.0097    0.0527    0.0000   -0.0414
  S   C    4   -0.0037   -0.0000   -0.0032    0.0000   -0.0504    0.0950    0.0000    0.0459
  Px  C    4    0.3127   -0.0001   -0.2163   -0.0000   -0.1396   -0.0069   -0.0000   -0.2853
  Py  C    4   -0.2747    0.0001   -0.0673   -0.0000    0.2105    0.3351    0.0000    0.1319
  Pz  C    4    0.0001    0.4502   -0.0000   -0.1695   -0.0000   -0.0000    0.3741   -0.0000
  S   C    5   -0.0703    0.0000   -0.0019   -0.0000    0.0159   -0.0798   -0.0000    0.0505
  Px  C    5   -0.3839    0.0001   -0.0957   -0.0000   -0.0034    0.2201    0.0000    0.0464
  Py  C    5    0.1327   -0.0000   -0.3279   -0.0000   -0.3571   -0.1129   -0.0001   -0.3555
  Pz  C    5    0.0000    0.0626    0.0000   -0.1429    0.0000    0.0000   -0.4257    0.0000
  S   C    6    0.0735   -0.0000   -0.0081    0.0000    0.0053    0.0551    0.0000    0.0149
  Px  C    6    0.0112    0.0000    0.2699    0.0000    0.3225   -0.2049    0.0000   -0.1463
  Py  C    6    0.3731   -0.0001    0.0652    0.0000   -0.0918    0.0830    0.0000    0.4712
  Pz  C    6   -0.0001   -0.3522    0.0000    0.0772    0.0000    0.0000   -0.1926   -0.0000
  S   C    7   -0.0131   -0.0000    0.0131    0.0000   -0.0028    0.0350    0.0000    0.0763
  Px  C    7    0.4331   -0.0001    0.0057    0.0000   -0.1081    0.4015    0.0000    0.1881
  Py  C    7    0.1974   -0.0000    0.3081    0.0000    0.3603    0.1422    0.0000   -0.4375
  Pz  C    7   -0.0001   -0.4431    0.0000    0.1972   -0.0000   -0.0000    0.4458   -0.0000
  S   H    8    0.1133    0.2520    0.0164   -0.0946   -0.1190   -0.1007    0.2338   -0.0503
  S   H    9    0.1132   -0.2520    0.0164    0.0947   -0.1190   -0.1006   -0.2338   -0.0503
  S   H   10    0.0232   -0.0303   -0.1377    0.0782   -0.1473   -0.0915    0.2566   -0.1506
  S   H   11    0.0232    0.0302   -0.1377   -0.0783   -0.1473   -0.0915   -0.2567   -0.1505
  S   H   12   -0.1194   -0.1939   -0.0364    0.0432    0.0353   -0.0099   -0.1146   -0.2205
  S   H   13   -0.1193    0.1939   -0.0364   -0.0432    0.0353   -0.0099    0.1146   -0.2204
  S   H   14   -0.3330    0.0001   -0.1150   -0.0000   -0.0776   -0.2941   -0.0000    0.1026
  S   H   15    0.0648   -0.2462    0.1314    0.1121    0.1519    0.0708    0.2693   -0.1691
  S   H   16    0.0649    0.2462    0.1314   -0.1121    0.1519    0.0708   -0.2693   -0.1691


   Root No.      17        18        19        20        21        22        23        24

                13 a'      5 a"     14 a'      6 a"     15 a'     16 a'      7 a"     17 a'  

               -12.162   -11.830   -11.363    -9.455    -0.398    -0.295     0.815     0.996
  
  S   C    1    0.0441   -0.0000   -0.0634   -0.0000   -0.1719    0.2781    0.0000   -0.0597
  Px  C    1   -0.2660   -0.0000    0.0611    0.0000    0.2653   -0.1317    0.0000    0.3556
  Py  C    1    0.1701   -0.0000   -0.2213   -0.0000    0.0528    0.2934    0.0000    0.3742
  Pz  C    1    0.0000   -0.0143    0.0000   -0.0495   -0.0000   -0.0000    0.6099   -0.0000
  S   N    2    0.3052   -0.0000   -0.1290   -0.0000   -0.0232    0.0323    0.0000   -0.0014
  Px  N    2    0.2900   -0.0000   -0.3041   -0.0000   -0.2014   -0.0527   -0.0000   -0.3307
  Py  N    2   -0.2814   -0.0000   -0.0768   -0.0000   -0.1964   -0.2098   -0.0000   -0.3733
  Pz  N    2   -0.0000   -0.0233    0.0000   -0.2967    0.0000    0.0000   -0.5935    0.0000
  S   S    3   -0.1424    0.0000    0.2703    0.0000   -0.0192   -0.1552    0.0000    0.0419
  Px  S    3    0.2239    0.0000    0.1862    0.0000    0.6007   -0.1103   -0.0000   -0.1872
  Py  S    3   -0.1615    0.0000    0.5920    0.0000   -0.0337    0.6101   -0.0000   -0.2269
  Pz  S    3    0.0000    0.0297   -0.0000    0.9268   -0.0000   -0.0000   -0.1527    0.0000
  x2  S    3    0.0252   -0.0000   -0.0540   -0.0000    0.1176    0.1674    0.0000    0.5067
  xz  S    3   -0.0000   -0.0058    0.0000    0.0266   -0.0000   -0.0000    0.3618   -0.0000
  z2  S    3   -0.0427    0.0000    0.0988   -0.0000   -0.0091   -0.3750    0.0000    0.1478
  yz  S    3   -0.0000   -0.0071    0.0000    0.0307   -0.0000   -0.0000   -0.3476    0.0000
  xy  S    3   -0.0909   -0.0000   -0.0409    0.0000    0.5648   -0.1067    0.0000   -0.2563
  S   C    4    0.0396    0.0000   -0.0497    0.0000    0.1445    0.1605    0.0000   -0.0572
  Px  C    4   -0.1737   -0.0000   -0.3333   -0.0000    0.2523    0.3093   -0.0000   -0.1720
  Py  C    4    0.0948    0.0000   -0.2989   -0.0000    0.1856    0.2074   -0.0000   -0.0839
  Pz  C    4    0.0000    0.1398   -0.0000   -0.1464   -0.0000   -0.0000   -0.0063    0.0000
  S   C    5   -0.0302    0.0000   -0.0250    0.0000    0.0336   -0.0530   -0.0000   -0.0371
  Px  C    5    0.3765    0.0000    0.1628    0.0000    0.0349   -0.0412    0.0000   -0.0678
  Py  C    5    0.1316   -0.0000    0.1247    0.0000   -0.0134    0.0348    0.0000    0.0445
  Pz  C    5   -0.0000   -0.3995    0.0000   -0.0039   -0.0000   -0.0000    0.0065   -0.0000
  S   C    6   -0.0200    0.0000   -0.0445   -0.0000    0.0117    0.0474    0.0000   -0.0091
  Px  C    6   -0.3075   -0.0000   -0.1980   -0.0000    0.0122    0.0704    0.0000   -0.0164
  Py  C    6   -0.1902    0.0000   -0.0879   -0.0000    0.0059    0.0494    0.0000   -0.0060
  Pz  C    6   -0.0000    0.4983   -0.0000    0.0138    0.0000    0.0000   -0.0007   -0.0000
  S   C    7    0.0191    0.0000    0.0147    0.0000   -0.0019   -0.0111   -0.0000   -0.0040
  Px  C    7    0.2780    0.0000    0.1270    0.0000   -0.0036   -0.0212   -0.0000   -0.0055
  Py  C    7    0.1673   -0.0000    0.0257   -0.0000    0.0025    0.0114    0.0000    0.0035
  Pz  C    7    0.0000   -0.2994    0.0000   -0.0044   -0.0000   -0.0000   -0.0001   -0.0000
  S   H    8   -0.0207    0.1053    0.1143   -0.1159   -0.0147    0.0272    0.0183    0.0146
  S   H    9   -0.0208   -0.1054    0.1143    0.1159   -0.0147    0.0272   -0.0183    0.0146
  S   H   10    0.0484    0.2703    0.0591   -0.0107   -0.0020   -0.0190   -0.0009    0.0032
  S   H   11    0.0484   -0.2703    0.0591    0.0107   -0.0020   -0.0190    0.0009    0.0032
  S   H   12    0.0882    0.3384    0.0288    0.0071    0.0030    0.0033   -0.0008    0.0008
  S   H   13    0.0882   -0.3384    0.0288   -0.0071    0.0030    0.0033    0.0008    0.0008
  S   H   14   -0.2482    0.0000   -0.0924   -0.0000    0.0016    0.0137    0.0000   -0.0005
  S   H   15    0.0853   -0.2048    0.0204   -0.0033    0.0002   -0.0037    0.0001   -0.0005
  S   H   16    0.0853    0.2048    0.0204    0.0033    0.0002   -0.0037   -0.0001   -0.0005


   Root No.      25        26        27        28        29        30        31        32

                 8 a"     18 a'     19 a'      9 a"     20 a'     21 a'     22 a'     23 a'  

                 1.864     2.106     2.127     2.265     2.620     3.352     3.836     4.215
  
  S   C    1    0.0000    0.1208    0.1258   -0.0000    0.2893    0.0489   -0.0055    0.0122
  Px  C    1    0.0000    0.0752   -0.2766   -0.0000   -0.0907   -0.0155    0.0107    0.0004
  Py  C    1    0.0000    0.2584   -0.2012   -0.0000    0.2434    0.0344    0.0018    0.0101
  Pz  C    1    0.0051   -0.0000    0.0000   -0.3958   -0.0000   -0.0000    0.0000   -0.0000
  S   N    2    0.0000    0.0015   -0.0018    0.0000   -0.0022   -0.0015   -0.0015   -0.0012
  Px  N    2   -0.0000   -0.0835    0.2061    0.0000    0.0280    0.0081   -0.0022    0.0016
  Py  N    2   -0.0000   -0.1846    0.1700    0.0000   -0.1481   -0.0219   -0.0029   -0.0072
  Pz  N    2   -0.0034    0.0000   -0.0000    0.3032    0.0000    0.0000   -0.0000    0.0000
  S   S    3    0.0000   -0.0886   -0.0485   -0.0000   -0.0162    0.0057    0.0097    0.0068
  Px  S    3   -0.0000   -0.0119    0.0241    0.0000   -0.3791   -0.1138    0.0009   -0.0413
  Py  S    3   -0.0000    0.1085    0.1631    0.0000    0.0288    0.0070   -0.0550   -0.0078
  Pz  S    3   -0.0290   -0.0000   -0.0000    0.0775    0.0000    0.0000   -0.0000    0.0000
  x2  S    3   -0.0000   -0.5210    0.6197    0.0000   -0.1156    0.1359   -0.0650    0.0359
  xz  S    3    0.6705    0.0000    0.0000    0.6402   -0.0000   -0.0000    0.0000   -0.0000
  z2  S    3   -0.0000    0.6894    0.5838    0.0000    0.0485   -0.0192   -0.0281   -0.0134
  yz  S    3    0.7336    0.0000    0.0000   -0.5792   -0.0000   -0.0000    0.0000   -0.0000
  xy  S    3    0.0000   -0.1482    0.1198   -0.0000    0.7132    0.1153    0.0615    0.0379
  S   C    4    0.0000    0.0709    0.0496    0.0000   -0.0824   -0.2677    0.0215   -0.0971
  Px  C    4   -0.0000    0.2341    0.0509    0.0000   -0.3149    0.3180   -0.2355    0.1174
  Py  C    4   -0.0000    0.1071    0.1022    0.0000   -0.1289   -0.4117    0.1031   -0.2014
  Pz  C    4   -0.0201    0.0000    0.0000   -0.0042   -0.0000   -0.0000    0.0000   -0.0000
  S   C    5    0.0000    0.0194   -0.0431   -0.0000   -0.0241    0.1434   -0.3024    0.0817
  Px  C    5    0.0000    0.0843   -0.0368    0.0000   -0.1404    0.5405    0.2963    0.3057
  Py  C    5    0.0000   -0.0297    0.0547    0.0000    0.0153   -0.2401    0.5162   -0.0840
  Pz  C    5    0.0021   -0.0000   -0.0000    0.0030    0.0000   -0.0000    0.0000   -0.0000
  S   C    6    0.0000    0.0258    0.0224    0.0000   -0.0438   -0.0264    0.1958    0.2709
  Px  C    6    0.0000    0.0467    0.0231    0.0000   -0.0918    0.3323    0.5061   -0.3405
  Py  C    6   -0.0000    0.0252    0.0294    0.0000   -0.0489   -0.0743    0.3268    0.4807
  Pz  C    6   -0.0030    0.0000    0.0000   -0.0001   -0.0000   -0.0000   -0.0000    0.0000
  S   C    7   -0.0000    0.0034   -0.0097   -0.0000   -0.0066    0.1260    0.0068   -0.1927
  Px  C    7   -0.0000    0.0053   -0.0153    0.0000   -0.0130    0.2427    0.0745   -0.4519
  Py  C    7    0.0000   -0.0026    0.0120    0.0000    0.0055   -0.1715    0.0240    0.3504
  Pz  C    7   -0.0001    0.0000    0.0000   -0.0001   -0.0000   -0.0000    0.0000    0.0000
  S   H    8    0.0740   -0.0088    0.0363    0.0057   -0.0095   -0.0643    0.0619   -0.0435
  S   H    9   -0.0740   -0.0088    0.0363   -0.0057   -0.0095   -0.0643    0.0619   -0.0435
  S   H   10   -0.0008   -0.0076   -0.0101   -0.0006    0.0135    0.0444   -0.1126   -0.0210
  S   H   11    0.0008   -0.0076   -0.0101    0.0006    0.0135    0.0444   -0.1126   -0.0210
  S   H   12    0.0002    0.0007    0.0056   -0.0005   -0.0039   -0.0363    0.0771    0.0955
  S   H   13   -0.0002    0.0007    0.0056    0.0005   -0.0039   -0.0363    0.0771    0.0955
  S   H   14    0.0000    0.0059    0.0074    0.0000   -0.0142    0.0304    0.1406   -0.0381
  S   H   15    0.0004   -0.0009   -0.0033    0.0000    0.0024    0.0240   -0.0417   -0.0870
  S   H   16   -0.0004   -0.0009   -0.0033   -0.0000    0.0024    0.0240   -0.0417   -0.0869


   Root No.      33        34        35        36        37        38        39        40

                10 a"     11 a"     24 a'     25 a'     12 a"     26 a'     13 a"     27 a'  

                 4.665     5.107     5.342     5.380     5.457     5.561     5.778     5.884
  
  S   C    1    0.0000   -0.0000   -0.1544    0.4088   -0.0000   -0.0018    0.0000    0.0067
  Px  C    1    0.0000   -0.0000   -0.1774    0.4232   -0.0000   -0.0016   -0.0000   -0.0037
  Py  C    1    0.0000    0.0000    0.1169   -0.3356    0.0000    0.0028    0.0000    0.0030
  Pz  C    1    0.0083   -0.0050    0.0000   -0.0000   -0.0030   -0.0000   -0.0007    0.0000
  S   N    2   -0.0000    0.0000    0.1130   -0.2900    0.0000    0.0015   -0.0000    0.0001
  Px  N    2    0.0000   -0.0000   -0.1682    0.4440   -0.0000   -0.0024    0.0000    0.0010
  Py  N    2   -0.0000    0.0000    0.1408   -0.3472    0.0000    0.0013   -0.0000   -0.0013
  Pz  N    2   -0.0041    0.0025    0.0000   -0.0000    0.0015    0.0000    0.0003   -0.0000
  S   S    3   -0.0000    0.0000   -0.0107    0.0358   -0.0000   -0.0014    0.0000    0.0058
  Px  S    3   -0.0000    0.0000    0.0084    0.0423   -0.0000   -0.0023   -0.0000   -0.0170
  Py  S    3   -0.0000    0.0000    0.0416   -0.0132   -0.0000    0.0016    0.0000    0.0172
  Pz  S    3   -0.0290    0.0217   -0.0000   -0.0000    0.0156    0.0000    0.0039   -0.0000
  x2  S    3   -0.0000    0.0000    0.0173    0.0098   -0.0000    0.0015    0.0000    0.0150
  xz  S    3    0.0643   -0.0360    0.0000    0.0000   -0.0212   -0.0000   -0.0047    0.0000
  z2  S    3   -0.0000    0.0000    0.0361   -0.0295   -0.0000   -0.0003    0.0000    0.0035
  yz  S    3    0.0475   -0.0234    0.0000    0.0000   -0.0130   -0.0000   -0.0031    0.0000
  xy  S    3    0.0000   -0.0000   -0.0056   -0.0750    0.0000   -0.0015    0.0000   -0.0039
  S   C    4   -0.0001    0.0001    0.5020    0.1996   -0.0001   -0.0472    0.0000    0.0568
  Px  C    4    0.0000   -0.0000   -0.0524   -0.0163    0.0000    0.0254   -0.0000    0.0586
  Py  C    4    0.0000   -0.0001   -0.3165   -0.1165    0.0001    0.0264   -0.0000   -0.1252
  Pz  C    4    0.5231   -0.3102    0.0001    0.0000   -0.1888   -0.0001   -0.0455    0.0000
  S   C    5    0.0000   -0.0000   -0.1327   -0.0512    0.0000    0.0245    0.0000    0.5363
  Px  C    5    0.0000   -0.0000   -0.0535   -0.0230    0.0000   -0.0566    0.0000   -0.0557
  Py  C    5   -0.0000    0.0000    0.0548    0.0214    0.0000   -0.1092    0.0001    0.3067
  Pz  C    5    0.2815    0.2765    0.0001    0.0001    0.4706    0.0003    0.1957   -0.0000
  S   C    6   -0.0000    0.0000    0.0422    0.0156    0.0000   -0.1607    0.0000   -0.2243
  Px  C    6   -0.0000    0.0000    0.0448    0.0164    0.0000   -0.0765    0.0000   -0.0533
  Py  C    6    0.0000   -0.0000   -0.0077   -0.0045    0.0000   -0.0186   -0.0000   -0.0088
  Pz  C    6    0.1388    0.4041   -0.0001   -0.0001   -0.2113   -0.0003   -0.4463    0.0000
  S   C    7    0.0000    0.0000   -0.0150   -0.0060   -0.0000    0.0095    0.0001    0.0706
  Px  C    7   -0.0000    0.0000    0.0372    0.0167   -0.0002    0.3954   -0.0001    0.0440
  Py  C    7    0.0000    0.0000    0.0348    0.0156   -0.0003    0.4792   -0.0001   -0.0277
  Pz  C    7    0.0536    0.2349   -0.0001   -0.0001   -0.3533   -0.0000    0.4790   -0.0000
  S   H    8   -0.4592    0.2504   -0.4817   -0.1847    0.1290    0.0364    0.0228   -0.0831
  S   H    9    0.4594   -0.2507   -0.4815   -0.1847   -0.1287    0.0363   -0.0228   -0.0831
  S   H   10    0.2804    0.2362    0.0770    0.0302    0.3754    0.0386    0.1305   -0.4839
  S   H   11   -0.2804   -0.2362    0.0768    0.0301   -0.3755    0.0382   -0.1306   -0.4839
  S   H   12   -0.1294   -0.3685   -0.0188   -0.0075    0.1671    0.0991    0.3261    0.1531
  S   H   13    0.1294    0.3684   -0.0190   -0.0076   -0.1671    0.0987   -0.3261    0.1532
  S   H   14   -0.0000    0.0000    0.0670    0.0292   -0.0003    0.6011   -0.0002   -0.0361
  S   H   15   -0.0501   -0.2213   -0.0155   -0.0071    0.3176   -0.2967   -0.3762   -0.0186
  S   H   16    0.0501    0.2212   -0.0157   -0.0072   -0.3173   -0.2968    0.3763   -0.0187


   Root No.      41        42

                28 a'     29 a'  

                 6.067     6.534
  
  S   C    1    0.0002   -0.0004
  Px  C    1    0.0001    0.0001
  Py  C    1    0.0015   -0.0009
  Pz  C    1   -0.0000    0.0000
  S   N    2    0.0002   -0.0001
  Px  N    2   -0.0005    0.0002
  Py  N    2   -0.0001    0.0001
  Pz  N    2    0.0000   -0.0000
  S   S    3    0.0023   -0.0009
  Px  S    3   -0.0051    0.0036
  Py  S    3   -0.0022    0.0001
  Pz  S    3    0.0000   -0.0000
  x2  S    3    0.0008   -0.0015
  xz  S    3   -0.0000    0.0000
  z2  S    3   -0.0017    0.0008
  yz  S    3   -0.0000    0.0000
  xy  S    3    0.0054   -0.0015
  S   C    4   -0.0161    0.0135
  Px  C    4   -0.0001   -0.0102
  Py  C    4   -0.0182    0.0110
  Pz  C    4   -0.0000    0.0000
  S   C    5    0.1391   -0.0448
  Px  C    5    0.0558   -0.0150
  Py  C    5    0.1654    0.0015
  Pz  C    5    0.0000   -0.0000
  S   C    6    0.5126   -0.0213
  Px  C    6   -0.0610    0.1063
  Py  C    6   -0.3537   -0.0749
  Pz  C    6   -0.0000    0.0000
  S   C    7   -0.0310    0.6319
  Px  C    7   -0.0034   -0.1769
  Py  C    7    0.1822    0.1319
  Pz  C    7   -0.0000   -0.0001
  S   H    8    0.0194   -0.0046
  S   H    9    0.0194   -0.0046
  S   H   10   -0.1490    0.0399
  S   H   11   -0.1490    0.0399
  S   H   12   -0.4781   -0.0060
  S   H   13   -0.4781   -0.0059
  S   H   14    0.1213   -0.4123
  S   H   15   -0.0585   -0.4235
  S   H   16   -0.0585   -0.4236

           SUPERDELOCALIZABILITIES

 Mulliken electronegativity:        4.926366
 Parr & Pople absolute hardness:    4.528412
 Schuurmann MO shift alpha:        -4.926366
 
 Ehomo:                            -9.454779
 Elumo:                            -0.397954


  a   n        Dn(r)        De(r)   q(r) - Z(r)

  C   1    -0.593795    -0.352972    -4.029068
  N   2    -0.416043    -0.514147    -5.162173
  S   3    -1.942321    -0.752668    -5.911598
  C   4    -1.189340    -0.007925    -0.059757
  C   5    -0.709171    -0.284491    -3.187741
  C   6    -0.403047    -0.396768    -4.275558
  C   7    -0.393764    -0.407316    -4.238277

 Total:    -5.647479    -2.716288

  a   n        piS(r)

  C   1    -0.211390
  N   2    -0.198420
  S   3    -0.171398
  C   4    -0.203030
  C   5    -0.191336
  C   6    -0.191349
  C   7    -0.185949

 Total:    -1.352872

  a   n       homo-1         homo         lumo       lumo+1

  C   1     5.672552     0.244728    10.273259    18.075587
  N   2    11.499592     8.801541     7.968967     4.782541
  S   3    47.255682    86.067746    69.525141    58.849904
  C   4     1.267480     0.165143     1.392334    16.865240
  C   5    20.463501     0.000000    43.794214    17.580352
  C   6     4.267440     2.143561     0.252573     0.572586
  C   7     4.891779     0.001505     0.032139     0.964584


              NET ATOMIC CHARGES AND DIPOLE CONTRIBUTIONS

  ATOM NO.   TYPE          CHARGE      No. of ELECS.   s-Pop       p-Pop       d-Pop       
    1          C          -0.029068        4.0291     1.16373     2.86534
    2          N          -0.162173        5.1622     1.80309     3.35908
    3          S           0.088402        5.9116     1.92346     3.85892     0.12922
    4          C          -0.302164        4.3022     1.11306     3.18910
    5          C          -0.260738        4.2607     1.08679     3.17394
    6          C          -0.216378        4.2164     1.08136     3.13502
    7          C          -0.464659        4.4647     1.08219     3.38247
    8          H           0.167820        0.8322     0.83218
    9          H           0.167824        0.8322     0.83218
   10          H           0.148904        0.8511     0.85110
   11          H           0.148903        0.8511     0.85110
   12          H           0.131000        0.8690     0.86900
   13          H           0.131000        0.8690     0.86900
   14          H           0.150421        0.8496     0.84958
   15          H           0.150455        0.8495     0.84955
   16          H           0.150452        0.8495     0.84955
 DIPOLE           X         Y         Z       TOTAL
 POINT-CHG.    -3.825     0.704     0.000     3.889
 HYBRID        -0.423     0.089     0.000     0.432
 SUM           -4.248     0.793     0.000     4.322


          ATOMIC ORBITAL ELECTRON POPULATIONS

     Atom    s        px        py        pz      x^2-y^2     xz        z^2       yz        xy
    1  C   1.16373   0.96893   0.95397   0.94245
    2  N   1.80309   1.14307   1.10442   1.11159
    3  S   1.92346   0.86120   1.06119   1.93653   0.01607   0.00756   0.03100   0.00513   0.06946
    4  C   1.11306   0.95386   1.05137   1.18388
    5  C   1.08679   0.95580   1.04908   1.16906
    6  C   1.08136   0.94990   1.03796   1.14716
    7  C   1.08219   1.07819   1.12890   1.17538
    8  H   0.83218
    9  H   0.83218
   10  H   0.85110
   11  H   0.85110
   12  H   0.86900
   13  H   0.86900
   14  H   0.84958
   15  H   0.84955
   16  H   0.84955

          BONDING CONTRIBUTION OF EACH M.O.

  1.4522  1.3199  1.7262  1.8324  1.9083  1.9518  1.4110  1.8669  1.9370  1.8276
  1.7318  1.8781  1.9992  1.5266  1.9180  1.9611  1.5668  1.9690  1.5521  0.3671
 -0.9641 -1.4717 -1.5727 -1.2934 -0.0298 -0.5670 -0.5834 -0.5370 -1.2550 -1.9214
 -1.9681 -1.9839 -1.9237 -1.9497 -1.9371 -1.9515 -1.9737 -1.9700 -2.0014 -1.9516
 -1.9708 -1.9265





            (VALENCIES)   BOND ORDERS

     1  C     (3.945)     2  N 2.897     3  S 1.036
 
     2  N     (3.024)     1  C 2.897     3  S 0.107     4  C 0.018
 
     3  S     (2.163)     1  C 1.036     4  C 0.986     2  N 0.107     5  C 0.012     6  C 0.010
 
     4  C     (3.933)     5  C 0.993     3  S 0.986     8  H 0.961     9  H 0.961     2  N 0.018
 
     5  C     (3.949)     6  C 0.993     4  C 0.993    10  H 0.967    11  H 0.967     3  S 0.012
 
     6  C     (3.962)     7  C 1.007     5  C 0.993    12  H 0.973    13  H 0.973     3  S 0.010
 
     7  C     (3.929)     6  C 1.007    15  H 0.971    16  H 0.971    14  H 0.970
 
     8  H     (0.972)     4  C 0.961
 
     9  H     (0.972)     4  C 0.961
 
    10  H     (0.978)     5  C 0.967
 
    11  H     (0.978)     5  C 0.967
 
    12  H     (0.983)     6  C 0.973
 
    13  H     (0.983)     6  C 0.973
 
    14  H     (0.977)     7  C 0.970
 
    15  H     (0.977)     7  C 0.971
 
    16  H     (0.977)     7  C 0.971
 




 SELF-Q:    SELF OR INACTIVE CHARGE
 ACTIV-Q:   CHARGE WHICH IS USED TO FORM BONDS
 TOTAL-Q:   SELF-Q + ACTIV-Q
 FREE-VA:   TOTAL-Q - VALENCE
 STAT.PROM: TOTAL-Q - CORE CHARGE
 MULL.PROM: -CHARGE (SEE ABOVE)

       SELF-Q    ACTIV-Q   TOTAL-Q   VALENCE   FREE-VA STAT.PROM MULL.PROM


   1   0.08370   3.94537   4.02907   3.94537  -0.00000   0.02907   0.02907

   2   2.13843   3.02374   5.16217   3.02374  -0.00000   0.16217   0.16217

   3   3.74814   2.16346   5.91160   2.16346  -0.00000  -0.08840  -0.08840

   4   0.36870   3.93347   4.30216   3.93347  -0.00000   0.30216   0.30216

   5   0.31151   3.94923   4.26074   3.94923   0.00000   0.26074   0.26074

   6   0.25446   3.96192   4.21638   3.96192  -0.00000   0.21638   0.21638

   7   0.53569   3.92897   4.46466   3.92897   0.00000   0.46466   0.46466

   8  -0.13966   0.97184   0.83218   0.97184   0.00000  -0.16782  -0.16782

   9  -0.13966   0.97183   0.83218   0.97183  -0.00000  -0.16782  -0.16782

  10  -0.12673   0.97783   0.85110   0.97783   0.00000  -0.14890  -0.14890

  11  -0.12673   0.97783   0.85110   0.97783   0.00000  -0.14890  -0.14890

  12  -0.11384   0.98284   0.86900   0.98284   0.00000  -0.13100  -0.13100

  13  -0.11384   0.98284   0.86900   0.98284  -0.00000  -0.13100  -0.13100

  14  -0.12779   0.97737   0.84958   0.97737   0.00000  -0.15042  -0.15042

  15  -0.12782   0.97736   0.84955   0.97736   0.00000  -0.15045  -0.15045

  16  -0.12782   0.97736   0.84955   0.97736  -0.00000  -0.15045  -0.15045

 CLOSED SHELL





          TOTAL ENERGY PARTITIONING

          ALL ENERGIES ARE IN ELECTRON VOLTS

            ONE-CENTER TERMS 
          E-E:  ELECTRON-ELECTRON REPULSION
          E-N:  ELECTRON-NUCLEAR ATTRACTION


   ATOM      E-E       E-N    (E-E + E-N)
   C   1    74.1599 -173.8902  -99.7304
   N   2   109.3371 -271.7861 -162.4489
   S   3    83.9847 -248.6422 -164.6575
   C   4    83.8948 -184.2320 -100.3372
   C   5    82.2181 -182.2847 -100.0665
   C   6    80.5607 -180.4524  -99.8917
   C   7    89.9817 -190.3775 -100.3958
   H   8     2.5015   -9.3595   -6.8580
   H   9     2.5015   -9.3594   -6.8580
   H  10     2.6165   -9.5722   -6.9557
   H  11     2.6165   -9.5723   -6.9557
   H  12     2.7278   -9.7736   -7.0458
   H  13     2.7278   -9.7736   -7.0458
   H  14     2.6072   -9.5552   -6.9480
   H  15     2.6070   -9.5548   -6.9478
   H  16     2.6070   -9.5548   -6.9478

              TWO-CENTER TERMS
           
          J:   RESONANCE ENERGY          E-E: ELECTRON-ELECTRON REPULSION
          K:   EXCHANGE ENERGY           E-N: ELECTRON-NUCLEAR ATTRACTION
                                         N-N: NUCLEAR-NUCLEAR REPULSION
          C:   COULOMBIC INTERACTION = E-E + E-N + N-N
          EE:  TOTAL OF ELECTRONIC AND NUCLEAR ENERGIES


     ATOM          J        K       E-E       E-N      N-N      C        EE
     PAIR
 
  N    2  C    1  -31.9787 -14.8133 173.6189 -352.9494 193.3635 14.0331 -32.7589
 
  S    3  C    1  -12.0023  -4.7917 155.1229 -316.2738 165.8730  4.7221 -12.0719
  S    3  N    2    0.1958  -0.2352 135.6178 -272.4263 136.8429  0.0344  -0.0050
 
  C    4  C    1    0.0559  -0.0111  85.2969 -163.8687  78.7084  0.1367   0.1814
  C    4  N    2    0.0031  -0.0355  81.6440 -155.9816  74.4547  0.1170   0.0846
  C    4  S    3   -9.0793  -4.3096 157.4164 -311.1782 156.6860  2.9242 -10.4647
 
  C    5  C    1   -0.0054  -0.0126  59.1344 -114.0939  54.9985  0.0390   0.0210
  C    5  N    2    0.0000  -0.0013  59.8261 -114.7211  54.9772  0.0822   0.0809
  C    5  S    3   -0.0546  -0.0340 120.3563 -236.3302 115.9690 -0.0049  -0.0935
  C    5  C    4  -11.7306  -5.1353 137.7221 -261.1563 128.1224  4.6882 -12.1777
 
  C    6  C    1    0.0001  -0.0019  45.8434  -88.8752  43.0556  0.0238   0.0220
  C    6  N    2    0.0000  -0.0005  49.4074  -95.0498  45.7059  0.0635   0.0630
  C    6  S    3   -0.0099  -0.0203  82.9797 -163.3709  80.3127 -0.0785  -0.1086
  C    6  C    4    0.0319  -0.0056  95.0363 -178.8351  84.2893  0.4904   0.5167
  C    6  C    5  -11.4129  -5.0981 134.4567 -257.2178 127.1365  4.3754 -12.1356

   ATOM          J        K       E-E       E-N      N-N      C        EE
   PAIR
  C    7  C    1   -0.0000  -0.0002  39.1048  -73.7820  34.7174  0.0402   0.0400
  C    7  N    2   -0.0000  -0.0001  43.0583  -80.5547  37.6115  0.1151   0.1150
  C    7  S    3    0.0001  -0.0012  70.6314 -135.1780  64.4235 -0.1231  -0.1242
  C    7  C    4   -0.0089  -0.0135  68.5843 -125.3469  57.2534  0.4908   0.4684
  C    7  C    5    0.0638  -0.0063  99.1285 -182.2676  83.9016  0.7625   0.8201
  C    7  C    6  -11.6887  -5.1939 141.2519 -264.4406 127.9616  4.7729 -12.1097

   ATOM          J        K       E-E       E-N      N-N      C        EE
   PAIR
  H    8  C    1    0.0059  -0.0005  15.6208  -34.2205  18.5673 -0.0324  -0.0270
  H    8  N    2   -0.0006  -0.0004  15.8013  -34.4445  18.5734 -0.0698  -0.0708
  H    8  S    3    0.0324  -0.0126  25.4328  -56.6203  31.4638  0.2764   0.2961
  H    8  C    4  -11.2405  -5.3367  33.4469  -71.7811  42.8007  4.4665 -12.1107
  H    8  C    5    0.0052  -0.0004  20.9574  -44.9710  23.8978 -0.1159  -0.1111
  H    8  C    6    0.0050  -0.0004  16.9803  -36.5205  19.3711 -0.1691  -0.1645
  H    8  C    7   -0.0002  -0.0000  12.3305  -25.8834  13.2979 -0.2550  -0.2552

   ATOM          J        K       E-E       E-N      N-N      C        EE
   PAIR
  H    9  C    1    0.0059  -0.0005  15.6207  -34.2204  18.5673 -0.0324  -0.0270
  H    9  N    2   -0.0006  -0.0004  15.8012  -34.4444  18.5734 -0.0698  -0.0708
  H    9  S    3    0.0324  -0.0126  25.4327  -56.6200  31.4637  0.2764   0.2961
  H    9  C    4  -11.2400  -5.3366  33.4463  -71.7798  42.7997  4.4661 -12.1106
  H    9  C    5    0.0052  -0.0004  20.9572  -44.9707  23.8977 -0.1159  -0.1111
  H    9  C    6    0.0050  -0.0004  16.9802  -36.5203  19.3711 -0.1691  -0.1645
  H    9  C    7   -0.0002  -0.0000  12.3305  -25.8834  13.2979 -0.2550  -0.2552
  H    9  H    8   -0.0502  -0.0013   4.8877  -11.7467   7.1409  0.2819   0.2305

   ATOM          J        K       E-E       E-N      N-N      C        EE
   PAIR
  H   10  C    1   -0.0003  -0.0002  11.1294  -24.0793  12.9276 -0.0222  -0.0227
  H   10  N    2    0.0000  -0.0000  11.3258  -24.3703  12.9985 -0.0460  -0.0460
  H   10  S    3   -0.0093  -0.0021  23.1775  -50.8174  27.7464  0.1064   0.0951
  H   10  C    4    0.0300  -0.0010  21.7633  -45.8665  23.9705 -0.1326  -0.1036
  H   10  C    5  -11.1602  -5.3551  33.8123  -71.9778  42.6861  4.5206 -11.9947
  H   10  C    6    0.0035  -0.0002  21.3557  -45.4404  24.0364 -0.0483  -0.0450
  H   10  C    7    0.0056  -0.0005  18.5595  -38.4631  19.5770 -0.3265  -0.3213
  H   10  H    8   -0.0167  -0.0091   3.1215   -7.4185   4.4074  0.1103   0.0845
  H   10  H    9    0.0064  -0.0002   3.7189   -8.8383   5.2559  0.1364   0.1426

   ATOM          J        K       E-E       E-N      N-N      C        EE
   PAIR
  H   11  C    1   -0.0003  -0.0002  11.1294  -24.0793  12.9276 -0.0222  -0.0227
  H   11  N    2    0.0000  -0.0000  11.3258  -24.3703  12.9985 -0.0460  -0.0460
  H   11  S    3   -0.0093  -0.0021  23.1775  -50.8175  27.7464  0.1064   0.0951
  H   11  C    4    0.0300  -0.0010  21.7634  -45.8667  23.9706 -0.1326  -0.1036
  H   11  C    5  -11.1602  -5.3551  33.8123  -71.9778  42.6861  4.5206 -11.9946
  H   11  C    6    0.0035  -0.0002  21.3557  -45.4404  24.0364 -0.0483  -0.0450
  H   11  C    7    0.0056  -0.0005  18.5595  -38.4630  19.5770 -0.3265  -0.3213
  H   11  H    8    0.0064  -0.0002   3.7189   -8.8384   5.2559  0.1364   0.1426
  H   11  H    9   -0.0167  -0.0091   3.1214   -7.4185   4.4074  0.1103   0.0845
  H   11  H   10   -0.0556  -0.0015   5.1308  -12.0570   7.1685  0.2423   0.1852

   ATOM          J        K       E-E       E-N      N-N      C        EE
   PAIR
  H   12  C    1   -0.0000  -0.0000   9.2459  -19.7927  10.5328 -0.0140  -0.0140
  H   12  N    2    0.0000  -0.0000  10.1436  -21.5579  11.3754 -0.0390  -0.0390
  H   12  S    3   -0.0002  -0.0000  16.0120  -34.7361  18.7691  0.0450   0.0447
  H   12  C    4    0.0060  -0.0005  18.3134  -38.0961  19.5946 -0.1881  -0.1826
  H   12  C    5    0.0305  -0.0009  22.0050  -46.0428  23.9682 -0.0696  -0.0400
  H   12  C    6  -11.2156  -5.3927  34.1899  -72.3061  42.7524  4.6362 -11.9721
  H   12  C    7    0.0210  -0.0004  23.1494  -47.4677  24.1000 -0.2183  -0.1976
  H   12  H    8   -0.0121  -0.0008   3.7921   -8.9206   5.2488  0.1204   0.1075
  H   12  H    9   -0.0004  -0.0000   3.1848   -7.4920   4.4042  0.0970   0.0966
  H   12  H   10   -0.0169  -0.0088   3.2756   -7.6180   4.4290  0.0866   0.0609
  H   12  H   11    0.0066  -0.0002   3.9054   -9.0829   5.2860  0.1086   0.1150

   ATOM          J        K       E-E       E-N      N-N      C        EE
   PAIR
  H   13  C    1   -0.0000  -0.0000   9.2459  -19.7927  10.5328 -0.0140  -0.0140
  H   13  N    2    0.0000  -0.0000  10.1436  -21.5579  11.3754 -0.0390  -0.0390
  H   13  S    3   -0.0002  -0.0000  16.0120  -34.7361  18.7691  0.0450   0.0447
  H   13  C    4    0.0060  -0.0005  18.3133  -38.0960  19.5946 -0.1881  -0.1825
  H   13  C    5    0.0305  -0.0009  22.0051  -46.0429  23.9682 -0.0696  -0.0400
  H   13  C    6  -11.2157  -5.3927  34.1900  -72.3064  42.7526  4.6363 -11.9721
  H   13  C    7    0.0210  -0.0004  23.1496  -47.4680  24.1002 -0.2183  -0.1976
  H   13  H    8   -0.0004  -0.0000   3.1848   -7.4921   4.4042  0.0970   0.0966
  H   13  H    9   -0.0121  -0.0008   3.7921   -8.9205   5.2488  0.1204   0.1075
  H   13  H   10    0.0066  -0.0002   3.9054   -9.0829   5.2860  0.1086   0.1150
  H   13  H   11   -0.0169  -0.0088   3.2756   -7.6180   4.4290  0.0866   0.0609
  H   13  H   12   -0.0437  -0.0009   5.3550  -12.3245   7.1771  0.2076   0.1630

   ATOM          J        K       E-E       E-N      N-N      C        EE
   PAIR
  H   14  C    1    0.0000  -0.0000   6.6073  -14.3212   7.7027 -0.0112  -0.0112
  H   14  N    2    0.0000  -0.0000   7.4404  -16.0003   8.5249 -0.0350  -0.0350
  H   14  S    3   -0.0000  -0.0002  11.4718  -25.1672  13.7295  0.0341   0.0339
  H   14  C    4    0.0002  -0.0004  10.9654  -23.0998  11.9977 -0.1368  -0.1370
  H   14  C    5   -0.0131  -0.0116  14.3083  -30.2771  15.8144 -0.1545  -0.1792
  H   14  C    6   -0.0056  -0.0006  21.3206  -45.3913  24.0160 -0.0547  -0.0609
  H   14  C    7  -11.2986  -5.3948  35.4625  -74.1447  43.1098  4.4276 -12.2658
  H   14  H    8    0.0000  -0.0000   2.0414   -4.8559   2.8874  0.0729   0.0729
  H   14  H    9    0.0000  -0.0000   2.0414   -4.8559   2.8874  0.0729   0.0729
  H   14  H   10   -0.0003  -0.0000   2.6734   -6.2878   3.6972  0.0828   0.0825
  H   14  H   11   -0.0003  -0.0000   2.6734   -6.2878   3.6972  0.0828   0.0825
  H   14  H   12    0.0050  -0.0001   3.9451   -9.1835   5.3502  0.1119   0.1168
  H   14  H   13    0.0050  -0.0001   3.9451   -9.1835   5.3503  0.1119   0.1168

   ATOM          J        K       E-E       E-N      N-N      C        EE
   PAIR
  H   15  C    1   -0.0000  -0.0000   7.2218  -15.6506   8.4160 -0.0128  -0.0128
  H   15  N    2    0.0000  -0.0000   7.9480  -17.0982   9.1138 -0.0364  -0.0364
  H   15  S    3    0.0000  -0.0000  13.1780  -28.9051  15.7652  0.0381   0.0381
  H   15  C    4   -0.0002  -0.0000  12.1262  -25.5526  13.2763 -0.1501  -0.1503
  H   15  C    5    0.0078  -0.0007  17.4408  -36.8957  19.2693 -0.1856  -0.1785
  H   15  C    6    0.0061  -0.0004  21.2341  -45.2238  23.9337 -0.0559  -0.0502
  H   15  C    7  -11.3056  -5.4020  35.4694  -74.1576  43.1185  4.4303 -12.2773
  H   15  H    8   -0.0000  -0.0000   2.2390   -5.3260   3.1670  0.0800   0.0800
  H   15  H    9   -0.0000  -0.0000   2.0859   -4.9618   2.9504  0.0745   0.0745
  H   15  H   10   -0.0003  -0.0000   3.1784   -7.4758   4.3961  0.0987   0.0984
  H   15  H   11   -0.0111  -0.0007   3.7768   -8.8833   5.2283  0.1218   0.1100
  H   15  H   12    0.0067  -0.0002   3.8984   -9.0749   5.2862  0.1097   0.1162
  H   15  H   13   -0.0173  -0.0092   3.2710   -7.6144   4.4309  0.0875   0.0611
  H   15  H   14   -0.0726  -0.0025   5.1260  -12.0674   7.1889  0.2475   0.1724

   ATOM          J        K       E-E       E-N      N-N      C        EE
   PAIR
  H   16  C    1   -0.0000  -0.0000   7.2219  -15.6506   8.4160 -0.0128  -0.0128
  H   16  N    2    0.0000  -0.0000   7.9481  -17.0983   9.1138 -0.0364  -0.0364
  H   16  S    3    0.0000  -0.0000  13.1781  -28.9052  15.7652  0.0381   0.0381
  H   16  C    4   -0.0002  -0.0000  12.1263  -25.5527  13.2763 -0.1501  -0.1503
  H   16  C    5    0.0078  -0.0007  17.4409  -36.8958  19.2693 -0.1856  -0.1785
  H   16  C    6    0.0061  -0.0004  21.2343  -45.2240  23.9338 -0.0559  -0.0501
  H   16  C    7  -11.3061  -5.4021  35.4701  -74.1590  43.1197  4.4308 -12.2774
  H   16  H    8   -0.0000  -0.0000   2.0859   -4.9619   2.9505  0.0745   0.0745
  H   16  H    9   -0.0000  -0.0000   2.2390   -5.3260   3.1670  0.0800   0.0800
  H   16  H   10   -0.0111  -0.0007   3.7768   -8.8833   5.2283  0.1218   0.1100
  H   16  H   11   -0.0003  -0.0000   3.1784   -7.4758   4.3961  0.0987   0.0984
  H   16  H   12   -0.0173  -0.0092   3.2710   -7.6144   4.4309  0.0875   0.0611
  H   16  H   13    0.0067  -0.0002   3.8984   -9.0750   5.2862  0.1097   0.1162
  H   16  H   14   -0.0726  -0.0025   5.1260  -12.0675   7.1890  0.2475   0.1724
  H   16  H   15   -0.0672  -0.0022   5.1229  -12.0603   7.1845  0.2471   0.1778
 

                    Total contribution from hydrogen bonds:         0.000 disp.:    0.000 Tot:     0.000 kcal/mol




***  SUMMARY OF ENERGY PARTITION  ***
 ---------------------------------------
     ONE-CENTER TERMS

 ELECTRON-NUCLEAR  (ONE-ELECTRON)        -1517.7406 EV
 ELECTRON-ELECTRON (TWO-ELECTRON)          627.6498 EV

 TOTAL OF ONE-CENTER TERMS                -890.0907 EV
 ---------------------------------------
     TWO-CENTER TERMS

 RESONANCE ENERGY                         -188.9477 EV
 EXCHANGE ENERGY                           -88.2141 EV

 EXCHANGE + RESONANCE ENERGY:             -277.1617 EV

 ELECTRON-ELECTRON REPULSION              3328.5214 EV
 ELECTRON-NUCLEAR ATTRACTION             -6728.5692 EV
 NUCLEAR-NUCLEAR REPULSION                3478.9591 EV

 TOTAL ELECTROSTATIC INTERACTION            78.9114 EV

 GRAND TOTAL OF TWO-CENTER TERMS          -198.2504 EV
 ---------------------------------------
 ETOT (EONE + ETWO)                      -1088.3411 EV


 ******************** TDHF POLARIZABILITIES ********************



          MOLECULAR WEIGHT =  115.19



          ROTATIONAL CONSTANTS IN CM(-1)

          A =    0.31256408   B =    0.02474714   C =    0.02333340



           PRINCIPAL MOMENTS OF INERTIA IN UNITS OF 10**(-40)*GRAM-CM**2

          A =       89.5584   B =     1131.1512   C =     1199.6860


 ROTATION MATRIX FOR ORIENTATION OF MOLECULE:

         0.993963    0.109712   -0.000000
        -0.109712    0.993963   -0.000000
         0.000000    0.000000    1.000000


          CARTESIAN COORDINATES 

    NO.       ATOM         X         Y         Z

     1         C        2.5846   -0.1795   -0.0000
     2         N        3.5668   -0.7869   -0.0000
     3         S        1.1916    0.7822    0.0000
     4         C       -0.1224   -0.4847    0.0000
     5         C       -1.4360    0.2867    0.0000
     6         C       -2.6324   -0.6799    0.0000
     7         C       -3.9583    0.0753   -0.0000
     8         H       -0.0309   -1.1358    0.8901
     9         H       -0.0309   -1.1358   -0.8901
    10         H       -1.5027    0.9526   -0.8859
    11         H       -1.5027    0.9526    0.8859
    12         H       -2.5811   -1.3453    0.8846
    13         H       -2.5811   -1.3453   -0.8846
    14         H       -4.8077   -0.6185    0.0000
    15         H       -4.0621    0.7161    0.8835
    16         H       -4.0621    0.7161   -0.8835


 ENERGY OF "REORIENTED" SYSTEM WITHOUT FIELD:       17.2977364301


  NFREQ=  3  IWFLB=  0  IBET=  1  IGAM=  1
  ATOL= 0.10000D-02  BTOL= 0.10000D-02    MAXITU=  500    MAXITA=  150


 *****************************************************************
 CALCULATION OF STATIC FIELD QUANTITIES
 *****************************************************************

 +++++ ALPHA AT       0.00000 EV.

                           COMPONENTS OF ALPHA

                     *X           *Y           *Z
           *=X:     130.9596     -14.2239      -0.0140
           *=Y:     -14.2221      86.8891       0.0144
           *=Z:      -0.0002       0.0003      69.3105

  ISOTROPIC AVERAGE ALPHA =      95.71975 A.U. =     14.18420 ANG.**3

 +++++ BETA (SECOND HARMONIC GENERATION) AT       0.00000 EV.

                              COMPONENTS OF BETA
            *XX         *XY         *YY         *XZ         *YZ         *ZZ
   *=X  1493.64465  -485.67140   169.45291    -1.64421     0.53811    33.37863
   *=Y  -486.75082   169.78327   -19.89882     0.53537    -0.19337    -9.57433
   *=Z     0.00905    -0.00254     0.00069    33.39290    -9.58921    -0.00347


 AVERAGE BETAX(SHG) VALUE AT   0.00000 EV =       1018.0236 a.u. =  0.879513E-29 ESU
 AVERAGE BETAY(SHG) VALUE AT   0.00000 EV =       -309.3086 a.u. = -0.267225E-29 ESU
 AVERAGE BETAZ(SHG) VALUE AT   0.00000 EV =         -0.7352 a.u. = -0.635141E-32 ESU



 AVERAGE BETA (SHG) VALUE AT   0.00000 EV =       1063.9757 a.u. =  0.919213E-29 ESU
   (1 a.u. = 8.639418X10-33 esu)



 +++++ ALPHA AT       0.00000 EV.

                           COMPONENTS OF ALPHA

                     *X           *Y           *Z
           *=X:     130.9594     -14.2239      -0.0140
           *=Y:     -14.2218      86.8891       0.0144
           *=Z:      -0.0002       0.0003      69.3105

  ISOTROPIC AVERAGE ALPHA =      95.71967 A.U. =     14.18419 ANG.**3


 GAMMA (THIRD HARMONIC GENERATION) AT    0.00000 EV.


 GAMMA(X,X,X,X) =        322035.17473
 GAMMA(Y,Y,Y,Y) =          4659.19470
 GAMMA(Z,Z,Z,Z) =            65.76084
 GAMMA(X,X,Y,Y) =         36869.69808
 GAMMA(X,X,Z,Z) =           677.33450
 GAMMA(Y,Y,X,X) =         36872.03127
 GAMMA(Y,Y,Z,Z) =           471.72920
 GAMMA(Z,Z,X,X) =           679.26915
 GAMMA(Z,Z,Y,Y) =           471.95748


 AVERAGE GAMMA VALUE AT    0.00000 =         80560.42999 a.u. =        40575.89256 ESU (X10-39)




 **********************************************************************
 CALCULATION FOR A FREQUENCY OF    0.25000 EV  =       0.00919 A.U. 
                  WAVELENGTH OF    4959.37 NM  =    2016.38525 CM(-1)
 **********************************************************************

 +++++ ALPHA AT       0.25000 EV.

                           COMPONENTS OF ALPHA

                     *X           *Y           *Z
           *=X:     131.0480     -14.2431      -0.0143
           *=Y:     -14.2413      86.9297       0.0147
           *=Z:      -0.0002       0.0003      69.3261

  ISOTROPIC AVERAGE ALPHA =      95.76797 A.U. =     14.19135 ANG.**3

 +++++ BETA (SECOND HARMONIC GENERATION) AT       0.25000 EV.

                              COMPONENTS OF BETA
            *XX         *XY         *YY         *XZ         *YZ         *ZZ
   *=X  1502.11044  -489.79859   171.09245    -1.69705     0.55689    33.62790
   *=Y  -495.19694   172.71865   -20.88338     0.55910    -0.20272    -9.67807
   *=Z     0.00907    -0.00255     0.00071    33.64065    -9.68252    -0.00351


 AVERAGE BETAX(SHG) VALUE AT   0.25000 EV =       1024.7541 a.u. =  0.885328E-29 ESU
 AVERAGE BETAY(SHG) VALUE AT   0.25000 EV =       -313.2975 a.u. = -0.270671E-29 ESU
 AVERAGE BETAZ(SHG) VALUE AT   0.25000 EV =         -0.7601 a.u. = -0.656647E-32 ESU



 AVERAGE BETA (SHG) VALUE AT   0.25000 EV =       1071.5768 a.u. =  0.925780E-29 ESU
   (1 a.u. = 8.639418X10-33 esu)



 +++++ ALPHA AT       0.75000 EV.

                           COMPONENTS OF ALPHA

                     *X           *Y           *Z
           *=X:     131.7655     -14.4029      -0.0131
           *=Y:     -14.4009      87.2623       0.0138
           *=Z:      -0.0002       0.0003      69.4528

  ISOTROPIC AVERAGE ALPHA =      96.16018 A.U. =     14.24947 ANG.**3


 GAMMA (THIRD HARMONIC GENERATION) AT    0.25000 EV.


 GAMMA(X,X,X,X) =        329023.99856
 GAMMA(Y,Y,Y,Y) =          4884.56635
 GAMMA(Z,Z,Z,Z) =            68.39791
 GAMMA(X,X,Y,Y) =         37860.24357
 GAMMA(X,X,Z,Z) =           694.56565
 GAMMA(Y,Y,X,X) =         38493.77365
 GAMMA(Y,Y,Z,Z) =           478.63872
 GAMMA(Z,Z,X,X) =           681.61979
 GAMMA(Z,Z,Y,Y) =           475.29481


 AVERAGE GAMMA VALUE AT    0.25000 =         82532.21980 a.u. =        41569.02444 ESU (X10-39)




 **********************************************************************
 CALCULATION FOR A FREQUENCY OF    0.50000 EV  =       0.01837 A.U. 
                  WAVELENGTH OF    2479.68 NM  =    4032.77050 CM(-1)
 **********************************************************************

 +++++ ALPHA AT       0.50000 EV.

                           COMPONENTS OF ALPHA

                     *X           *Y           *Z
           *=X:     131.3172     -14.3013      -0.0151
           *=Y:     -14.3030      87.0524       0.0157
           *=Z:      -0.0002       0.0003      69.3733

  ISOTROPIC AVERAGE ALPHA =      95.91430 A.U. =     14.21303 ANG.**3

 +++++ BETA (SECOND HARMONIC GENERATION) AT       0.50000 EV.

                              COMPONENTS OF BETA
            *XX         *XY         *YY         *XZ         *YZ         *ZZ
   *=X  1528.92887  -502.61118   176.12711    -1.83582     0.60609    34.39065
   *=Y  -522.02130   182.00784   -24.00017     0.62266    -0.22730    -9.99404
   *=Z     0.00956    -0.00270     0.00078    34.41303    -9.97188    -0.00358


 AVERAGE BETAX(SHG) VALUE AT   0.50000 EV =       1046.0292 a.u. =  0.903708E-29 ESU
 AVERAGE BETAY(SHG) VALUE AT   0.50000 EV =       -325.8364 a.u. = -0.281504E-29 ESU
 AVERAGE BETAZ(SHG) VALUE AT   0.50000 EV =         -0.8253 a.u. = -0.713039E-32 ESU



 AVERAGE BETA (SHG) VALUE AT   0.50000 EV =       1095.6036 a.u. =  0.946538E-29 ESU
   (1 a.u. = 8.639418X10-33 esu)



 +++++ ALPHA AT       1.50000 EV.

                           COMPONENTS OF ALPHA

                     *X           *Y           *Z
           *=X:     134.2944     -14.9749      -0.0111
           *=Y:     -14.9732      88.4536       0.0125
           *=Z:      -0.0002       0.0003      69.9025

  ISOTROPIC AVERAGE ALPHA =      97.55018 A.U. =     14.45544 ANG.**3


 GAMMA (THIRD HARMONIC GENERATION) AT    0.50000 EV.


 GAMMA(X,X,X,X) =        351681.42356
 GAMMA(Y,Y,Y,Y) =          5648.42572
 GAMMA(Z,Z,Z,Z) =            76.99992
 GAMMA(X,X,Y,Y) =         41070.04420
 GAMMA(X,X,Z,Z) =           749.79427
 GAMMA(Y,Y,X,X) =         43981.05921
 GAMMA(Y,Y,Z,Z) =           500.49096
 GAMMA(Z,Z,X,X) =           680.93234
 GAMMA(Z,Z,Y,Y) =           482.99557


 AVERAGE GAMMA VALUE AT    0.50000 =         88974.43315 a.u. =        44813.77570 ESU (X10-39)


 ******************** FINITE-FIELD POLARIZABILITIES ********************

    THE F-F METHOD IS PERFORMED USING BOTH AN ENERGY
    AND DIPOLE MOMENT EXPANSION.  THESE RESULTS ARE
    LISTED BELOW AS "H.o.F." AND "Dipole", RESPECTIVELY.

          MOLECULAR WEIGHT =  115.19



          ROTATIONAL CONSTANTS IN CM(-1)

          A =    0.31256408   B =    0.02474714   C =    0.02333340



           PRINCIPAL MOMENTS OF INERTIA IN UNITS OF 10**(-40)*GRAM-CM**2

          A =       89.5584   B =     1131.1512   C =     1199.6860


 ROTATION MATRIX FOR ORIENTATION OF MOLECULE:

         0.993963    0.109712   -0.000000
        -0.109712    0.993963   -0.000000
         0.000000    0.000000    1.000000


          CARTESIAN COORDINATES 

    NO.       ATOM         X         Y         Z

     1         C        2.5846   -0.1795   -0.0000
     2         N        3.5668   -0.7869   -0.0000
     3         S        1.1916    0.7822    0.0000
     4         C       -0.1224   -0.4847    0.0000
     5         C       -1.4360    0.2867    0.0000
     6         C       -2.6324   -0.6799    0.0000
     7         C       -3.9583    0.0753   -0.0000
     8         H       -0.0309   -1.1358    0.8901
     9         H       -0.0309   -1.1358   -0.8901
    10         H       -1.5027    0.9526   -0.8859
    11         H       -1.5027    0.9526    0.8859
    12         H       -2.5811   -1.3453    0.8846
    13         H       -2.5811   -1.3453   -0.8846
    14         H       -4.8077   -0.6185    0.0000
    15         H       -4.0621    0.7161    0.8835
    16         H       -4.0621    0.7161   -0.8835


 ENERGY OF "REORIENTED" SYSTEM WITHOUT FIELD:       17.29774 Kcal/mol


 APPLIED ELECTRIC FIELD MAGNITUDE:         0.10284 VOLTS PER ANGSTROM
    Step  1 of 36 done (+X)
    Step  2 of 36 done (-X)
    Step  3 of 36 done (+2X)
    Step  4 of 36 done (-2X)
    Step  5 of 36 done (+Y)
    Step  6 of 36 done (-Y)
    Step  7 of 36 done (+2Y)
    Step  8 of 36 done (-2Y)
    Step  9 of 36 done (+Y+X)
    Step 10 of 36 done (+Y-X)
    Step 11 of 36 done (-Y-X)
    Step 12 of 36 done (-Y+X)
    Step 13 of 36 done (+2Y+2X)
    Step 14 of 36 done (+2Y-2X)
    Step 15 of 36 done (-2Y-2X)
    Step 16 of 36 done (-2Y+2X)
    Step 17 of 36 done (+Z)
    Step 18 of 36 done (-Z)
    Step 19 of 36 done (+2Z)
    Step 20 of 36 done (-2Z)
    Step 21 of 36 done (+Z+X)
    Step 22 of 36 done (+Z-X)
    Step 23 of 36 done (-Z-X)
    Step 24 of 36 done (-Z+X)
    Step 25 of 36 done (+2Z+2X)
    Step 26 of 36 done (+2Z-2X)
    Step 27 of 36 done (-2Z-2X)
    Step 28 of 36 done (-2Z+2X)
    Step 29 of 36 done (+Z+Y)
    Step 30 of 36 done (+Z-Y)
    Step 31 of 36 done (-Z-Y)
    Step 32 of 36 done (-Z+Y)
    Step 33 of 36 done (+2Z+2Y)
    Step 34 of 36 done (+2Z-2Y)
    Step 35 of 36 done (-2Z-2Y)
    Step 36 of 36 done (-2Z+2Y)


 ****************************** DIPOLE ******************************


                     H.o.F.         Dipole

     X              1.619256       1.619138
     Y              0.107565       0.107565
     X             -0.000010      -0.000001


 MAGNITUDE:         1.622825       1.622707  (A.U.)
                    4.124810       4.124511  (DEBYE)


 ****************************** POLARIZABILITY ********************



 Polarizability Tensor from Heat of Formation:


                     1          2          3
 ------------------------------------------
          1 116.376262
          2  -7.197227  85.577717
          3  -0.000468   0.000189  69.421441




    ROOT NO.    1           2           3

            69.42144    83.97882   117.97516
  
         1   0.00001    -0.21687     0.97620
         2  -0.00001    -0.97620    -0.21687
         3   1.00000    -0.00001    -0.00001

 Polarizability Tensor from Dipole Moment:


                     1          2          3
 ------------------------------------------
          1 116.347907
          2  -7.212804  85.562739
          3   0.003912  -0.001086  69.416676




    ROOT NO.    1           2           3

            69.41668    83.95661   117.95403
  
         1  -0.00008    -0.21735     0.97609
         2   0.00003    -0.97609    -0.21735
         3   1.00000     0.00001     0.00008


 Average Polarizability from:     H.o.F         Dipole
                               90.458473      90.442441  A.U.
                               13.404137      13.401761  ANG.**3
                            2.680755D-23   2.680280D-23  ESU
 *******************************************************************************
 **                                                                           **
 **                              MOPAC v22.1.1                                **
 **                                                                           **
 *******************************************************************************
 **          Digital Object Identifier (DOI): 10.5281/zenodo.6511958          **
 **    Visit the DOI location for information on how to cite this program.    **
 *******************************************************************************

                              PM6 CALCULATION RESULTS

 *******************************************************************************
 *  CALCULATION DONE:                                Tue May  7 17:20:41 2024  *
 *  PM6        - The PM6 Hamiltonian to be used
 *  OLDGEO     - PREVIOUS GEOMETRY TO BE USED
 *  FORCE      - FORCE CALCULATION SPECIFIED
 *  T=         - A TIME OF 172800.0 SECONDS REQUESTED
 *  DUMP=N     - RESTART FILE WRITTEN EVERY 7200.0 SECONDS REQUESTED
 *  THERMO     - THERMODYNAMIC QUANTITIES TO BE CALCULATED
 *******************************************************************************
PM6 OLDGEO FORCE THERMO
 buscn
 All coordinates are Cartesian
   ATOM   CHEMICAL          X               Y               Z
  NUMBER   SYMBOL      (ANGSTROMS)     (ANGSTROMS)     (ANGSTROMS)
 
     1       C          3.95759020  *   0.02234167  *  -0.00000324  *
     2       N          4.93979441  *  -0.58502505  *  -0.00000680  *
     3       S          2.56456034  *   0.98409326  *  -0.00000134  *
     4       C          1.25060495  *  -0.28284931  *   0.00001278  *
     5       C         -0.06301717  *   0.48858943  *  -0.00000004  *
     6       C         -1.25947832  *  -0.47799624  *  -0.00000088  *
     7       C         -2.58529539  *   0.27712131  *  -0.00001200  *
     8       H          1.34206402  *  -0.93389491  *   0.89013524  *
     9       H          1.34206578  *  -0.93390175  *  -0.89014693  *
    10       H         -0.12979151  *   1.15447274  *  -0.88593992  *
    11       H         -0.12979102  *   1.15447300  *   0.88593984  *
    12       H         -1.20816131  *  -1.14342115  *   0.88462827  *
    13       H         -1.20816452  *  -1.14341805  *  -0.88462399  *
    14       H         -3.43470097  *  -0.41659015  *   0.00000233  *
    15       H         -2.68913996  *   0.91800722  *   0.88350668  *
    16       H         -2.68913953  *   0.91799796  *  -0.88349000  *
 


          CARTESIAN COORDINATES 

    NO.       ATOM           X           Y           Z

     1         C          3.9576      0.0223     -0.0000
     2         N          4.9398     -0.5850     -0.0000
     3         S          2.5646      0.9841     -0.0000
     4         C          1.2506     -0.2828      0.0000
     5         C         -0.0630      0.4886     -0.0000
     6         C         -1.2595     -0.4780     -0.0000
     7         C         -2.5853      0.2771     -0.0000
     8         H          1.3421     -0.9339      0.8901
     9         H          1.3421     -0.9339     -0.8901
    10         H         -0.1298      1.1545     -0.8859
    11         H         -0.1298      1.1545      0.8859
    12         H         -1.2082     -1.1434      0.8846
    13         H         -1.2082     -1.1434     -0.8846
    14         H         -3.4347     -0.4166      0.0000
    15         H         -2.6891      0.9180      0.8835
    16         H         -2.6891      0.9180     -0.8835

 General Reference for PM6:
 "Optimization of Parameters for Semiempirical Methods V: Modification of NDDO Approximations
 and Application to 70 Elements", J. J. P. Stewart, J. Mol. Mod., 13, 1173-1213 (2007)
 URL: https://link.springer.com/article/10.1007/s00894-007-0233-4

           Empirical Formula: C5 H9 N S  =    16 atoms



      MOLECULAR POINT GROUP   :   Cs  


      RHF CALCULATION, NO. OF DOUBLY OCCUPIED LEVELS = 20



          HEAT OF FORMATION =      17.297736 KCALS/MOLE


          CARTESIAN COORDINATE DERIVATIVES

   NUMBER  ATOM         X            Y            Z

     1       C     -0.004091    -0.003629     0.000095
     2       N      0.012975     0.008080    -0.000069
     3       S      0.004353     0.000503    -0.000421
     4       C      0.000474     0.003325     0.016172
     5       C      0.003571     0.001082    -0.001386
     6       C      0.000443    -0.000411    -0.001580
     7       C      0.001222    -0.001602    -0.018808
     8       H     -0.006801    -0.000469    -0.006294
     9       H     -0.000635    -0.007854    -0.008161
    10       H     -0.002400     0.001163     0.000536
    11       H     -0.001056     0.001204    -0.000538
    12       H     -0.000196     0.001425    -0.000452
    13       H     -0.003066     0.003262     0.003487
    14       H      0.000583    -0.002950     0.000709
    15       H     -0.006422     0.002665     0.008976
    16       H      0.001045    -0.005794     0.007733
 


          GRADIENT NORM =   0.03774

          MOLECULAR WEIGHT =  115.19



          ROTATIONAL CONSTANTS IN CM(-1)

          A =    0.31256408   B =    0.02474714   C =    0.02333340



           PRINCIPAL MOMENTS OF INERTIA IN UNITS OF 10**(-40)*GRAM-CM**2

          A =       89.5584   B =     1131.1512   C =     1199.6860


          ORIENTATION OF MOLECULE IN FORCE CALCULATION

    NO.       ATOM         X         Y         Z

     1          C       2.2927    1.2067    0.0001
     2          N       3.4475    1.2067    0.0001
     3          S       0.6021    1.2920    0.0001
     4          C       0.1509   -0.4766   -0.0000
     5          C      -1.3721   -0.5114   -0.0000
     6          C      -1.8814   -1.9627   -0.0001
     7          C      -3.4062   -2.0178   -0.0001
     8          H       0.5711   -0.9823    0.8901
     9          H       0.5711   -0.9822   -0.8902
    10          H      -1.7791    0.0199   -0.8859
    11          H      -1.7791    0.0198    0.8859
    12          H      -1.4878   -2.5017    0.8845
    13          H      -1.4878   -2.5017   -0.8847
    14          H      -3.7638   -3.0545   -0.0001
    15          H      -3.8316   -1.5273    0.8834
    16          H      -3.8315   -1.5273   -0.8836


    FIRST DERIVATIVES WILL BE USED IN THE CALCULATION OF SECOND DERIVATIVES

          ESTIMATED TIME TO COMPLETE CALCULATION =        1.88 SECONDS

    FOR POINT-GROUP Cs   THERE ARE   2 UNIQUE SYMMETRY FUNCTIONS.

 STEP:   1 TIME =     0.03 SECS, INTEGRAL =      0.03 TIME LEFT: 172799.95
 STEP:   2 TIME =     0.04 SECS, INTEGRAL =      0.07 TIME LEFT: 172799.91
 STEP:   3 TIME =     0.04 SECS, INTEGRAL =      0.10 TIME LEFT: 172799.88
 STEP:   4 TIME =     0.03 SECS, INTEGRAL =      0.13 TIME LEFT: 172799.85
 STEP:   5 TIME =     0.04 SECS, INTEGRAL =      0.17 TIME LEFT: 172799.81
 STEP:   6 TIME =     0.03 SECS, INTEGRAL =      0.20 TIME LEFT: 172799.78
 STEP:   7 TIME =     0.03 SECS, INTEGRAL =      0.23 TIME LEFT: 172799.75
 STEP:   8 TIME =     0.03 SECS, INTEGRAL =      0.26 TIME LEFT: 172799.72
 STEP:   9 TIME =     0.04 SECS, INTEGRAL =      0.30 TIME LEFT: 172799.68
 STEP:  10 TIME =     0.03 SECS, INTEGRAL =      0.33 TIME LEFT: 172799.65
 STEP:  11 TIME =     0.04 SECS, INTEGRAL =      0.36 TIME LEFT: 172799.62
 STEP:  12 TIME =     0.03 SECS, INTEGRAL =      0.39 TIME LEFT: 172799.59
 STEP:  13 TIME =     0.04 SECS, INTEGRAL =      0.43 TIME LEFT: 172799.55
 STEP:  14 TIME =     0.03 SECS, INTEGRAL =      0.46 TIME LEFT: 172799.52
 STEP:  15 TIME =     0.03 SECS, INTEGRAL =      0.49 TIME LEFT: 172799.49
 STEP:  16 TIME =     0.03 SECS, INTEGRAL =      0.52 TIME LEFT: 172799.46
 STEP:  17 TIME =     0.03 SECS, INTEGRAL =      0.55 TIME LEFT: 172799.43
 STEP:  18 TIME =     0.03 SECS, INTEGRAL =      0.59 TIME LEFT: 172799.39
 STEP:  19 TIME =     0.03 SECS, INTEGRAL =      0.62 TIME LEFT: 172799.36
 STEP:  20 TIME =     0.03 SECS, INTEGRAL =      0.65 TIME LEFT: 172799.33
 STEP:  21 TIME =     0.03 SECS, INTEGRAL =      0.68 TIME LEFT: 172799.30
 STEP:  22 TIME =     0.03 SECS, INTEGRAL =      0.71 TIME LEFT: 172799.27
 STEP:  23 TIME =     0.04 SECS, INTEGRAL =      0.75 TIME LEFT: 172799.23
 STEP:  24 TIME =     0.03 SECS, INTEGRAL =      0.78 TIME LEFT: 172799.20
 STEP:  25                       INTEGRAL =      0.78 TIME LEFT: 172799.20
 STEP:  26                       INTEGRAL =      0.78 TIME LEFT: 172799.20
 STEP:  27                       INTEGRAL =      0.78 TIME LEFT: 172799.20
 STEP:  28 TIME =     0.03 SECS, INTEGRAL =      0.81 TIME LEFT: 172799.17
 STEP:  29 TIME =     0.03 SECS, INTEGRAL =      0.84 TIME LEFT: 172799.14
 STEP:  30 TIME =     0.03 SECS, INTEGRAL =      0.87 TIME LEFT: 172799.11
 STEP:  31                       INTEGRAL =      0.87 TIME LEFT: 172799.11
 STEP:  32                       INTEGRAL =      0.87 TIME LEFT: 172799.11
 STEP:  33                       INTEGRAL =      0.87 TIME LEFT: 172799.11
 STEP:  34 TIME =     0.03 SECS, INTEGRAL =      0.90 TIME LEFT: 172799.08
 STEP:  35 TIME =     0.03 SECS, INTEGRAL =      0.93 TIME LEFT: 172799.05
 STEP:  36 TIME =     0.03 SECS, INTEGRAL =      0.96 TIME LEFT: 172799.02
 STEP:  37                       INTEGRAL =      0.96 TIME LEFT: 172799.02
 STEP:  38                       INTEGRAL =      0.96 TIME LEFT: 172799.02
 STEP:  39                       INTEGRAL =      0.96 TIME LEFT: 172799.02
 STEP:  40 TIME =     0.03 SECS, INTEGRAL =      0.99 TIME LEFT: 172798.99
 STEP:  41 TIME =     0.03 SECS, INTEGRAL =      1.02 TIME LEFT: 172798.96
 STEP:  42 TIME =     0.03 SECS, INTEGRAL =      1.05 TIME LEFT: 172798.93
 STEP:  43 TIME =     0.03 SECS, INTEGRAL =      1.09 TIME LEFT: 172798.89
 STEP:  44 TIME =     0.03 SECS, INTEGRAL =      1.12 TIME LEFT: 172798.86
 STEP:  45 TIME =     0.03 SECS, INTEGRAL =      1.15 TIME LEFT: 172798.83
 STEP:  46                       INTEGRAL =      1.15 TIME LEFT: 172798.83
 STEP:  47                       INTEGRAL =      1.15 TIME LEFT: 172798.83
 STEP:  48                       INTEGRAL =      1.15 TIME LEFT: 172798.83

(To convert to Hartree/Bohr^2, multiply by (10^(-21) x N x a0^2)/(4.184 x 627.51) =  0.0642)


           FORCE MATRIX IN MILLIDYNES/ANGSTROM


                  C  1       N  2       S  3       C  4       C  5       C  6
 ------------------------------------------------------------------------------
     C    1  22.138893
     N    2  18.838917  19.903845
     S    3   3.220460   1.130568   6.040805
     C    4   0.470068   0.061741   2.081029  10.341938
     C    5   0.084040   0.017389   0.531881   3.448556  12.002260
     C    6   0.018936   0.003370   0.040674   0.648674   3.228019  12.141119
     C    7   0.008286   0.006354   0.010267   0.053494   0.650270   3.525750
     H    8   0.019925   0.009231   0.584446   3.396171   0.597799   0.020359
     H    9   0.019954   0.009224   0.583866   3.395721   0.597465   0.020420
     H   10   0.008322   0.003876   0.063867   0.616937   3.356279   0.615242
     H   11   0.008341   0.003901   0.063864   0.616809   3.356548   0.615046
     H   12   0.002335   0.001521   0.005122   0.028982   0.613454   3.365807
     H   13   0.002346   0.001518   0.005015   0.028677   0.613169   3.366045
     H   14   0.001454   0.001246   0.001538   0.008955   0.047897   0.607113
     H   15   0.001921   0.001564   0.001754   0.004889   0.016967   0.611156
     H   16   0.001928   0.001569   0.001761   0.004826   0.016740   0.611034


                  C  7       H  8       H  9       H 10       H 11       H 12
 ------------------------------------------------------------------------------
     C    7  11.512201
     H    8   0.006940   4.163955
     H    9   0.007085   0.425278   4.163955
     H   10   0.016502   0.050466   0.016933   4.211557
     H   11   0.016466   0.017019   0.050571   0.429085   4.211557
     H   12   0.620415   0.013272   0.003956   0.051453   0.016274   4.224333
     H   13   0.620318   0.003961   0.013317   0.016353   0.051344   0.438536
     H   14   3.491410   0.001275   0.001273   0.002157   0.002103   0.017854
     H   15   3.493987   0.001712   0.001082   0.005356   0.014617   0.016274
     H   16   3.494349   0.001049   0.001795   0.014626   0.005372   0.052600


                  H 13       H 14       H 15       H 16
 ------------------------------------------------------
     H   13   4.224333
     H   14   0.017899   4.240510
     H   15   0.052565   0.445868   4.243854
     H   16   0.016323   0.446040   0.446090   4.243854


          HEAT OF FORMATION =      17.297736 KCALS/MOLE

          ZERO POINT ENERGY      76.289 KCAL/MOL


           NORMAL COORDINATE ANALYSIS (Total motion = 1 Angstrom)


   Root No.       1         2         3         4         5         6         7         8

                 1 A"      2 A"      3 A"      1 A'      4 A"      2 A'      3 A'      4 A'  

                  22.6      66.5      82.7      89.4     158.0     190.1     306.3     400.7
  
           1   -0.0000    0.0000    0.0000    0.0091   -0.0000   -0.0385    0.0264    0.0005
           2   -0.0000    0.0000    0.0000    0.0273    0.0000    0.0140    0.0210    0.0609
           3    0.0247   -0.0074   -0.0009    0.0000   -0.0003    0.0000    0.0000    0.0000
           4   -0.0000   -0.0000   -0.0000    0.0092    0.0000   -0.0390    0.0270    0.0005
           5   -0.0000   -0.0000   -0.0000    0.1206    0.0000   -0.0494   -0.0048   -0.0282
           6    0.0633    0.0023    0.0056    0.0000   -0.0006   -0.0000   -0.0000   -0.0000
[...]
 FREQUENCY          1227.15         C  4 -- H  8         +31.5% ( 59.5%)      0.1%
 TRANSITION DIPOLE   0.1286         C  4 -- H  9         +31.5% ( 59.5%)      0.1%
 TRAVEL (Ang.)       0.3773         C  5 -- C  6          +6.5% ( 27.0%)     99.7%
 REDUCED MASS        0.3861         C  4 -- C  5          +6.4% ( 26.8%)     29.5%
 EFFECTIVE MASS      2.6726
 FORCE CONSTANT      0.3425

 VIBRATION         25   13A'          ATOM PAIR      ENERGY CONTRIBUTION    RADIAL
 FREQUENCY          1259.72         C  7 -- H 16         +37.2% ( 53.1%)      1.2%
 TRANSITION DIPOLE   0.4332         C  7 -- H 15         +37.2% ( 53.1%)      1.2%
 TRAVEL (Ang.)       0.3941         C  7 -- H 14         +11.5% ( 29.5%)     30.0%
 REDUCED MASS        0.3446         C  6 -- C  7          +3.5% ( 16.2%)     14.2%
 EFFECTIVE MASS      1.5090
 FORCE CONSTANT      0.3222

 VIBRATION         26   13A"          ATOM PAIR      ENERGY CONTRIBUTION    RADIAL
 FREQUENCY          1260.16         C  7 -- H 14         +49.2% ( 59.5%)      0.0%
 TRANSITION DIPOLE   0.4788         C  7 -- H 16         +23.2% ( 40.8%)      7.5%
 TRAVEL (Ang.)       0.3765         C  7 -- H 15         +23.2% ( 40.8%)      7.5%
 REDUCED MASS        0.3774         C  6 -- C  7          +3.4% ( 15.6%)      0.0%
 EFFECTIVE MASS      1.3837
 FORCE CONSTANT      0.3531

 VIBRATION         27   14A'          ATOM PAIR      ENERGY CONTRIBUTION    RADIAL
 FREQUENCY          1271.09         C  4 -- H  8         +31.7% ( 57.3%)      2.1%
 TRANSITION DIPOLE   0.2618         C  4 -- H  9         +31.7% ( 57.3%)      2.1%
 TRAVEL (Ang.)       0.3695         C  4 -- C  5          +9.9% ( 32.0%)     97.8%
 REDUCED MASS        0.3886         S  3 -- C  4          +6.7% ( 26.3%)      0.1%
 EFFECTIVE MASS      2.3776
 FORCE CONSTANT      0.3699

 VIBRATION         28   15A'          ATOM PAIR      ENERGY CONTRIBUTION    RADIAL
 FREQUENCY          1275.42         C  5 -- H 11         +25.9% ( 51.2%)      2.2%
 TRANSITION DIPOLE   0.6097         C  5 -- H 10         +25.9% ( 51.2%)      2.2%
 TRAVEL (Ang.)       0.4286         C  4 -- H  8          +7.4% ( 27.4%)      2.1%
 REDUCED MASS        0.2878         C  4 -- H  9          +7.4% ( 27.4%)      2.1%
 EFFECTIVE MASS      2.1609
 FORCE CONSTANT      0.2758

 VIBRATION         29   16A'          ATOM PAIR      ENERGY CONTRIBUTION    RADIAL
 FREQUENCY          1283.63         C  6 -- H 12         +33.2% ( 54.2%)      2.0%
 TRANSITION DIPOLE   0.3479         C  6 -- H 13         +33.2% ( 54.2%)      2.0%
 TRAVEL (Ang.)       0.3989         C  5 -- H 10          +8.2% ( 26.9%)      1.3%
 REDUCED MASS        0.3301         C  5 -- H 11          +8.2% ( 26.9%)      1.3%
 EFFECTIVE MASS      1.7569
 FORCE CONSTANT      0.3205

 VIBRATION         30   17A'          ATOM PAIR      ENERGY CONTRIBUTION    RADIAL
 FREQUENCY          1306.06         C  6 -- H 13         +23.4% ( 54.0%)      0.5%
 TRANSITION DIPOLE   0.3621         C  6 -- H 12         +23.4% ( 54.0%)      0.5%
 TRAVEL (Ang.)       0.3730         C  5 -- H 10         +13.5% ( 41.0%)      1.1%
 REDUCED MASS        0.3712         C  5 -- H 11         +13.5% ( 41.0%)      1.1%
 EFFECTIVE MASS      2.6327
 FORCE CONSTANT      0.3730

 VIBRATION         31   18A'          ATOM PAIR      ENERGY CONTRIBUTION    RADIAL
 FREQUENCY          1318.49         C  5 -- H 10         +15.5% ( 50.0%)      0.2%
 TRANSITION DIPOLE   0.6150         C  5 -- H 11         +15.5% ( 50.0%)      0.2%
 TRAVEL (Ang.)       0.3195         C  5 -- C  6         +10.5% ( 41.2%)     34.9%
 REDUCED MASS        0.5009         C  6 -- C  7         +10.4% ( 40.8%)     98.9%
 EFFECTIVE MASS      4.1992
 FORCE CONSTANT      0.5130

 VIBRATION         32   19A'          ATOM PAIR      ENERGY CONTRIBUTION    RADIAL
 FREQUENCY          1343.02         C  7 -- H 14         +21.6% ( 49.6%)      0.8%
 TRANSITION DIPOLE   0.5831         C  7 -- H 16         +18.7% ( 46.1%)      1.7%
 TRAVEL (Ang.)       0.3988         C  7 -- H 15         +18.7% ( 46.1%)      1.7%
 REDUCED MASS        0.3157         C  6 -- H 13          +7.4% ( 29.1%)      0.2%
 EFFECTIVE MASS      2.5547
 FORCE CONSTANT      0.3355

 VIBRATION         33   20A'          ATOM PAIR      ENERGY CONTRIBUTION    RADIAL
 FREQUENCY          2293.24         C  1 -- N  2         +74.5% ( 99.9%)    100.0%
 TRANSITION DIPOLE   2.5106         C  1 -- S  3         +25.5% ( 58.5%)     99.8%
 TRAVEL (Ang.)       0.0673
 REDUCED MASS        6.4853
 EFFECTIVE MASS     12.8578
 FORCE CONSTANT     20.0947

 VIBRATION         34   14A"          ATOM PAIR      ENERGY CONTRIBUTION    RADIAL
 FREQUENCY          2648.59         C  4 -- H  8         +22.7% ( 49.5%)     97.9%
 TRANSITION DIPOLE   0.2032         C  4 -- H  9         +22.7% ( 49.5%)     97.9%
 TRAVEL (Ang.)       0.3494         C  5 -- H 10         +21.7% ( 48.5%)     98.1%
 REDUCED MASS        0.2085         C  5 -- H 11         +21.7% ( 48.5%)     98.1%
 EFFECTIVE MASS      1.4221
 FORCE CONSTANT      0.8619

 VIBRATION         35   15A"          ATOM PAIR      ENERGY CONTRIBUTION    RADIAL
 FREQUENCY          2661.93         C  6 -- H 12         +25.4% ( 52.2%)     98.0%
 TRANSITION DIPOLE   0.3575         C  6 -- H 13         +25.4% ( 52.2%)     98.0%
 TRAVEL (Ang.)       0.3536         C  4 -- H  8         +17.6% ( 43.5%)     97.8%
 REDUCED MASS        0.2027         C  4 -- H  9         +17.6% ( 43.5%)     97.8%
 EFFECTIVE MASS      1.4436
 FORCE CONSTANT      0.8461

 VIBRATION         36   16A"          ATOM PAIR      ENERGY CONTRIBUTION    RADIAL
 FREQUENCY          2677.93         C  5 -- H 10         +22.0% ( 48.4%)     97.7%
 TRANSITION DIPOLE   0.6672         C  5 -- H 11         +22.0% ( 48.4%)     97.7%
 TRAVEL (Ang.)       0.4004         C  6 -- H 12         +11.8% ( 35.5%)     97.8%
 REDUCED MASS        0.1570         C  6 -- H 13         +11.8% ( 35.5%)     97.8%
 EFFECTIVE MASS      1.4717
 FORCE CONSTANT      0.6636

 VIBRATION         37   21A'          ATOM PAIR      ENERGY CONTRIBUTION    RADIAL
 FREQUENCY          2694.45         C  7 -- H 14         +63.4% ( 82.0%)     99.5%
 TRANSITION DIPOLE   0.5420         C  7 -- H 16         +16.9% ( 42.4%)     86.1%
 TRAVEL (Ang.)       0.2292         C  7 -- H 15         +16.9% ( 42.4%)     86.1%
 REDUCED MASS        0.4762         C  6 -- C  7          +0.9% (  9.9%)      0.3%
 EFFECTIVE MASS      1.4523
 FORCE CONSTANT      2.0370

 VIBRATION         38   17A"          ATOM PAIR      ENERGY CONTRIBUTION    RADIAL
 FREQUENCY          2700.60         C  7 -- H 16         +40.1% ( 65.0%)     97.7%
 TRANSITION DIPOLE   0.8311         C  7 -- H 15         +40.1% ( 65.0%)     97.7%
 TRAVEL (Ang.)       0.2684         C  6 -- H 13          +7.4% ( 27.9%)     97.5%
 REDUCED MASS        0.3466         C  6 -- H 12          +7.4% ( 27.9%)     97.5%
 EFFECTIVE MASS      1.4787
 FORCE CONSTANT      1.4894

 VIBRATION         39   22A'          ATOM PAIR      ENERGY CONTRIBUTION    RADIAL
 FREQUENCY          2723.58         C  4 -- H  9         +34.4% ( 57.9%)     97.0%
 TRANSITION DIPOLE   0.3242         C  4 -- H  8         +34.4% ( 57.9%)     97.0%
 TRAVEL (Ang.)       0.3003         C  5 -- H 11         +14.2% ( 37.2%)     97.6%
 REDUCED MASS        0.2745         C  5 -- H 10         +14.2% ( 37.2%)     97.6%
 EFFECTIVE MASS      1.2052
 FORCE CONSTANT      1.1998

 VIBRATION         40   23A'          ATOM PAIR      ENERGY CONTRIBUTION    RADIAL
 FREQUENCY          2733.68         C  6 -- H 12         +20.5% ( 44.7%)     97.2%
 TRANSITION DIPOLE   0.2578         C  6 -- H 13         +20.5% ( 44.7%)     97.2%
 TRAVEL (Ang.)       0.3844         C  5 -- H 10         +17.1% ( 40.9%)     96.5%
 REDUCED MASS        0.1669         C  5 -- H 11         +17.1% ( 40.9%)     96.5%
 EFFECTIVE MASS      1.2372         C  4 -- H  9         +11.3% ( 33.2%)     95.8%
 FORCE CONSTANT      0.7348         C  4 -- H  8         +11.3% ( 33.2%)     95.8%

 VIBRATION         41   24A'          ATOM PAIR      ENERGY CONTRIBUTION    RADIAL
 FREQUENCY          2746.80         C  6 -- H 13         +26.7% ( 50.9%)     96.2%
 TRANSITION DIPOLE   0.6691         C  6 -- H 12         +26.7% ( 50.9%)     96.2%
 TRAVEL (Ang.)       0.3421         C  5 -- H 10         +18.0% ( 41.9%)     95.7%
 REDUCED MASS        0.2098         C  5 -- H 11         +18.0% ( 41.9%)     95.7%
 EFFECTIVE MASS      1.2833
 FORCE CONSTANT      0.9325

 VIBRATION         42   25A'          ATOM PAIR      ENERGY CONTRIBUTION    RADIAL
 FREQUENCY          2789.62         C  7 -- H 15         +33.2% ( 55.5%)     95.7%
 TRANSITION DIPOLE   0.4103         C  7 -- H 16         +33.2% ( 55.5%)     95.7%
 TRAVEL (Ang.)       0.2744         C  7 -- H 14         +32.3% ( 54.8%)     95.5%
 REDUCED MASS        0.3210         C  6 -- H 12          +0.4% (  6.1%)     82.4%
 EFFECTIVE MASS      1.1447
 FORCE CONSTANT      1.4716

      SYMMETRY NUMBER FOR POINT-GROUP Cs  =  1


          SYSTEM IS A GROUND STATE


 All coordinates are Cartesian
 buscn


          MOLECULE IS NOT LINEAR

          THERE ARE 42 GENUINE VIBRATIONS IN THIS SYSTEM
          THIS THERMODYNAMICS CALCULATION IS LIMITED TO
          MOLECULES WHICH HAVE NO INTERNAL ROTATIONS




                    CALCULATED THERMODYNAMIC PROPERTIES
                                          *
   TEMP. (K)   PARTITION FUNCTION   H.O.F.    ENTHALPY  HEAT CAPACITY ENTROPY
                                   KCAL/MOL   CAL/MOLE    CAL/K/MOL  CAL/K/MOL


 298.00  VIB.     0.2193D+04                  4007.1520    24.3801    28.7347
         ROT.     0.3933D+06                   888.2803     2.9808    28.5805
         INT.     0.8626D+09                  4895.4323    27.3609    57.3152
         TRA.     0.1195D+28                  1480.4672     4.9680    40.1374
         TOT.                       17.298    6375.8995    32.3289    97.4525

 200.00  VIB.     0.2154D+03                  1986.8313    17.0755    20.6103
         ROT.     0.2162D+06                   596.1613     2.9808    27.3918
         INT.     0.4657D+08                  2582.9926    20.0563    48.0021
         TRA.     0.6572D+27                   993.6021     4.9680    38.1562
         TOT.                       14.498    3576.5947    25.0243    86.1584

 210.00  VIB.     0.2761D+03                  2160.9539    17.7519    21.4598
         ROT.     0.2326D+06                   625.9693     2.9808    27.5372
         INT.     0.6423D+08                  2786.9233    20.7328    48.9970
         TRA.     0.7071D+27                  1043.2822     4.9680    38.3986
         TOT.                       14.752    3830.2055    25.7008    87.3956

 220.00  VIB.     0.3527D+03                  2341.9297    18.4462    22.3015
         ROT.     0.2495D+06                   655.7774     2.9808    27.6759
         INT.     0.8799D+08                  2997.7072    21.4270    49.9774
         TRA.     0.7582D+27                  1092.9623     4.9680    38.6297
         TOT.                       15.013    4090.6695    26.3950    88.6072

 230.00  VIB.     0.4493D+03                  2529.9376    19.1583    23.1371
         ROT.     0.2667D+06                   685.5855     2.9808    27.8084
         INT.     0.1198D+09                  3215.5231    22.1391    50.9455
         TRA.     0.8105D+27                  1142.6424     4.9680    38.8506
         TOT.                       15.280    4358.1655    27.1071    89.7961

 240.00  VIB.     0.5709D+03                  2725.1534    19.8876    23.9679
         ROT.     0.2842D+06                   715.3935     2.9808    27.9353
         INT.     0.1623D+09                  3440.5470    22.8685    51.9031
         TRA.     0.8639D+27                  1192.3226     4.9680    39.0620
         TOT.                       15.555    4632.8695    27.8365    90.9651

 250.00  VIB.     0.7234D+03                  2927.7443    20.6331    24.7948
         ROT.     0.3022D+06                   745.2016     2.9808    28.0569
         INT.     0.2186D+09                  3672.9459    23.6139    52.8517
         TRA.     0.9184D+27                  1242.0027     4.9680    39.2648
         TOT.                       15.837    4914.9486    28.5819    92.1165

 260.00  VIB.     0.9148D+03                  3137.8641    21.3931    25.6188
         ROT.     0.3205D+06                   775.0097     2.9808    28.1738
         INT.     0.2932D+09                  3912.8737    24.3739    53.7926
         TRA.     0.9741D+27                  1291.6828     4.9680    39.4597
         TOT.                       16.126    5204.5565    29.3420    93.2523

 270.00  VIB.     0.1154D+04                  3355.6496    22.1659    26.4406
         ROT.     0.3392D+06                   804.8177     2.9808    28.2863
         INT.     0.3915D+09                  4160.4673    25.1467    54.7270
         TRA.     0.1031D+28                  1341.3629     4.9680    39.6472
         TOT.                       16.424    5501.8302    30.1147    94.3741

 280.00  VIB.     0.1454D+04                  3581.2184    22.9495    27.2609
         ROT.     0.3582D+06                   834.6258     2.9808    28.3947
         INT.     0.5208D+09                  4415.8442    25.9303    55.6556
         TRA.     0.1089D+28                  1391.0430     4.9680    39.8278
         TOT.                       16.729    5806.8872    30.8983    95.4835

 290.00  VIB.     0.1828D+04                  3814.6675    23.7416    28.0800
         ROT.     0.3775D+06                   864.4339     2.9808    28.4993
         INT.     0.6902D+09                  4679.1014    26.7224    56.5793
         TRA.     0.1147D+28                  1440.7231     4.9680    40.0022
         TOT.                       17.042    6119.8245    31.6904    96.5815

 300.00  VIB.     0.2295D+04                  4056.0723    24.5402    28.8983
         ROT.     0.3972D+06                   894.2419     2.9808    28.6004
         INT.     0.9117D+09                  4950.3142    27.5210    57.4987
         TRA.     0.1207D+28                  1490.4032     4.9680    40.1706
         TOT.                       17.363    6440.7174    32.4891    97.6693

 310.00  VIB.     0.2877D+04                  4305.4867    25.3432    29.7161
         ROT.     0.4173D+06                   924.0500     2.9808    28.6981
         INT.     0.1201D+10                  5229.5367    28.3240    58.4142
         TRA.     0.1268D+28                  1540.0833     4.9680    40.3335
         TOT.                       17.691    6769.6200    33.2920    98.7477

 320.00  VIB.     0.3603D+04                  4562.9441    26.1485    30.5334
         ROT.     0.4376D+06                   953.8580     2.9808    28.7928
         INT.     0.1577D+10                  5516.8021    29.1293    59.3262
         TRA.     0.1330D+28                  1589.7634     4.9680    40.4912
         TOT.                       18.028    7106.5655    34.0973    99.8174

 330.00  VIB.     0.4506D+04                  4828.4579    26.9542    31.3504
         ROT.     0.4583D+06                   983.6661     2.9808    28.8845
         INT.     0.2065D+10                  5812.1240    29.9350    60.2349
         TRA.     0.1393D+28                  1639.4435     4.9680    40.6441
         TOT.                       18.373    7451.5675    34.9030   100.8790

 340.00  VIB.     0.5629D+04                  5102.0229    27.7585    32.1670
         ROT.     0.4793D+06                  1013.4742     2.9808    28.9735
         INT.     0.2698D+10                  6115.4971    30.7393    61.1405
         TRA.     0.1457D+28                  1689.1236     4.9680    40.7924
         TOT.                       18.726    7804.6207    35.7073   101.9329

 350.00  VIB.     0.7026D+04                  5383.6173    28.5598    32.9832
         ROT.     0.5006D+06                  1043.2822     2.9808    29.0599
         INT.     0.3517D+10                  6426.8995    31.5406    62.0431
         TRA.     0.1521D+28                  1738.8037     4.9680    40.9364
         TOT.                       19.088    8165.7032    36.5086   102.9795

 360.00  VIB.     0.8761D+04                  5673.2034    29.3566    33.7989
         ROT.     0.5222D+06                  1073.0903     2.9808    29.1439
         INT.     0.4575D+10                  6746.2937    32.3374    62.9428
         TRA.     0.1587D+28                  1788.4838     4.9680    41.0764
         TOT.                       19.457    8534.7775    37.3054   104.0192

 370.00  VIB.     0.1092D+05                  5970.7300    30.1477    34.6141
         ROT.     0.5441D+06                  1102.8984     2.9808    29.2255
         INT.     0.5939D+10                  7073.6284    33.1285    63.8396
         TRA.     0.1654D+28                  1838.1639     4.9680    41.2125
         TOT.                       19.834    8911.7923    38.0965   105.0521

 380.00  VIB.     0.1359D+05                  6276.1339    30.9319    35.4285
         ROT.     0.5663D+06                  1132.7064     2.9808    29.3050
         INT.     0.7696D+10                  7408.8404    33.9127    64.7335
         TRA.     0.1721D+28                  1887.8440     4.9680    41.3450
         TOT.                       20.219    9296.6844    38.8807   106.0785

 390.00  VIB.     0.1691D+05                  6589.3412    31.7082    36.2420
         ROT.     0.5888D+06                  1162.5145     2.9808    29.3825
         INT.     0.9954D+10                  7751.8557    34.6890    65.6245
         TRA.     0.1790D+28                  1937.5242     4.9680    41.4740
         TOT.                       20.611    9689.3799    39.6570   107.0985

 400.00  VIB.     0.2102D+05                  6910.2692    32.4759    37.0545
         ROT.     0.6116D+06                  1192.3226     2.9808    29.4579
         INT.     0.1285D+11                  8102.5917    35.4567    66.5124
         TRA.     0.1859D+28                  1987.2043     4.9680    41.5998
         TOT.                       21.012   10089.7960    40.4247   108.1122

   *: NOTE: HEATS OF FORMATION ARE RELATIVE TO THE
            ELEMENTS IN THEIR STANDARD STATE AT 298K
              (=  Standard Enthalpy of Formation).

            Hvib:  Zero-point energy is not included.
                   frequencies of less than zero cm-1 are not included.
            Hrot = (3/2)RT
            Htra = (3/2)RT + pV = (5/2)RT

            Heat capacity is Cp, not Cv

          For more information, see: HTTP://OpenMOPAC.net/Manual/thermochemistry.html


           FORCE CONSTANT IN CARTESIAN COORDINATES (Millidynes/A)

    ATOM   CHEMICAL       X               Y               Z
   NUMBER   SYMBOL  FORCE CONSTANT  FORCE CONSTANT  FORCE CONSTANT

      1       C       22.083565        1.302808        0.853931
      2       N       19.899540        0.294317        0.299186
      3       S        4.823336        3.611700        0.369984
      4       C        6.878204        4.930202        5.882480
      5       C        7.321037        7.002764        6.435059
      6       C        7.471938        7.057119        6.461703
      7       C        7.216704        6.383247        6.300750
      8       H        1.232944        1.387381        2.760845
      9       H        1.232956        1.387181        2.761032
     10       H        1.253656        1.527242        2.743688
     11       H        1.253668        1.527033        2.743885
     12       H        1.209937        1.557066        2.759595
     13       H        1.209949        1.556853        2.759796
     14       H        1.115460        3.732044        0.526941
     15       H        1.278568        1.253091        2.857954
     16       H        1.278555        1.253291        2.857767

 **********************
 *                    *
 * JOB ENDED NORMALLY *
 *                    *
 **********************



 TOTAL JOB TIME:             3.09 SECONDS

 == MOPAC DONE ==
