 *******************************************************************************
 **                                                                           **
 **                              MOPAC v22.1.1                                **
 **                                                                           **
 *******************************************************************************
 **          Digital Object Identifier (DOI): 10.5281/zenodo.6511958          **
 **    Visit the DOI location for information on how to cite this program.    **
 *******************************************************************************

                              PM6 CALCULATION RESULTS

 *******************************************************************************
 *  CALCULATION DONE:                                Tue May  7 17:20:21 2024  *
 *  PM6        - The PM6 Hamiltonian to be used
 *  MMOK       - APPLY MM CORRECTION TO CONH BARRIER
 *  STATIC     - CALCULATE STATIC FIELD POLARIZABILITIES
 *  POLAR      - CALCULATE FIRST, SECOND AND THIRD-ORDER POLARIZABILITIES
 *  PRECISE    - TIGHTER CRITERIA TO BE USED
 *  XYZ        - CARTESIAN COORDINATE SYSTEM TO BE USED
 *  T=         - A TIME OF 172800.0 SECONDS REQUESTED
 *  DUMP=N     - RESTART FILE WRITTEN EVERY 7200.0 SECONDS REQUESTED
 *  CYCLES=    - DO A MAXIMUM OF 8000 STEPS
 *  ENPART     - ENERGY TO BE PARTITIONED INTO COMPONENTS
 *  PRTXYZ     - PRINT CARTESIAN COORDINATES
 *  DISP       - PRINT DISPERSION AND HYDROGEN BOND ENERGIES
 *  BONDS      - FINAL BOND-ORDER MATRIX TO BE PRINTED
 *  LARGE      - EXPANDED OUTPUT TO BE PRINTED
 *  SUPER      - PRINT SUPERDELOCALIZABILITIES
 *  ALLVEC     - PRINT ALL EIGENVECTORS
 *******************************************************************************
PM6 PRECISE POLAR MMOK XYZ ENPART STATIC SUPER BONDS LARGE PRTXYZ DISP ALLVEC CYCLES = 8000
 bmi
 All coordinates are Cartesian
   ATOM   CHEMICAL          X               Y               Z
  NUMBER   SYMBOL      (ANGSTROMS)     (ANGSTROMS)     (ANGSTROMS)
 
     1       N         -0.72500000  *   0.30100000  *   0.44300000  *
     2       C         -1.66000000  *   0.96300000  *  -0.33000000  *
     3       C         -2.62600000  *   0.03100000  *  -0.62200000  *
     4       N         -2.31600000  *  -1.18500000  *  -0.05700000  *
     5       C         -1.17600000  *  -0.98500000  *   0.56900000  *
     6       C          0.51500000  *   0.85200000  *   0.98100000  *
     7       H         -1.55500000  *   2.00700000  *  -0.58300000  *
     8       H         -3.52700000  *   0.17100000  *  -1.20300000  *
     9       H         -0.62800000  *  -1.72400000  *   1.13900000  *
    10       H          0.27900000  *   1.77400000  *   1.52300000  *
    11       C          1.57700000  *   1.13900000  *  -0.09300000  *
    12       H          0.89100000  *   0.13700000  *   1.71800000  *
    13       H          1.17200000  *   1.87800000  *  -0.79500000  *
    14       C          2.06300000  *  -0.09100000  *  -0.87500000  *
    15       H          2.42800000  *   1.62100000  *   0.40600000  *
    16       H          2.70600000  *   0.25800000  *  -1.69200000  *
    17       H          1.20500000  *  -0.57900000  *  -1.35200000  *
    18       C          2.83700000  *  -1.11100000  *  -0.03200000  *
    19       H          3.70500000  *  -0.64900000  *   0.45400000  *
    20       H          3.20400000  *  -1.93400000  *  -0.65400000  *
    21       H          2.21500000  *  -1.55400000  *   0.75300000  *
 


          CARTESIAN COORDINATES 

    NO.       ATOM           X           Y           Z

     1         N         -0.7250      0.3010      0.4430
     2         C         -1.6600      0.9630     -0.3300
     3         C         -2.6260      0.0310     -0.6220
     4         N         -2.3160     -1.1850     -0.0570
     5         C         -1.1760     -0.9850      0.5690
     6         C          0.5150      0.8520      0.9810
     7         H         -1.5550      2.0070     -0.5830
     8         H         -3.5270      0.1710     -1.2030
     9         H         -0.6280     -1.7240      1.1390
    10         H          0.2790      1.7740      1.5230
    11         C          1.5770      1.1390     -0.0930
    12         H          0.8910      0.1370      1.7180
    13         H          1.1720      1.8780     -0.7950
    14         C          2.0630     -0.0910     -0.8750
    15         H          2.4280      1.6210      0.4060
    16         H          2.7060      0.2580     -1.6920
    17         H          1.2050     -0.5790     -1.3520
    18         C          2.8370     -1.1110     -0.0320
    19         H          3.7050     -0.6490      0.4540
    20         H          3.2040     -1.9340     -0.6540
    21         H          2.2150     -1.5540      0.7530

 General Reference for PM6:
 "Optimization of Parameters for Semiempirical Methods V: Modification of NDDO Approximations
 and Application to 70 Elements", J. J. P. Stewart, J. Mol. Mod., 13, 1173-1213 (2007)
 URL: https://link.springer.com/article/10.1007/s00894-007-0233-4

           Empirical Formula: C7 H12 N2  =    21 atoms



      MOLECULAR POINT GROUP   :   C1  


      RHF CALCULATION, NO. OF DOUBLY OCCUPIED LEVELS = 25


          Geometry optimization using EF

          DIAGONAL MATRIX USED AS START HESSIAN

 CYCLE:     1 TIME:   0.020 TIME LEFT:  2.00D  GRAD.:   129.921 HEAT:  21.34542
 CYCLE:     2 TIME:   0.020 TIME LEFT:  2.00D  GRAD.:   129.499 HEAT:  20.80031
 CYCLE:     3 TIME:   0.004 TIME LEFT:  2.00D  GRAD.:    63.208 HEAT:  18.13345
 CYCLE:     4 TIME:   0.023 TIME LEFT:  2.00D  GRAD.:    26.193 HEAT:  17.07758
 CYCLE:     5 TIME:   0.016 TIME LEFT:  2.00D  GRAD.:    16.671 HEAT:  16.85020
 CYCLE:     6 TIME:   0.008 TIME LEFT:  2.00D  GRAD.:    19.515 HEAT:  16.81348
 CYCLE:     7 TIME:   0.012 TIME LEFT:  2.00D  GRAD.:    10.748 HEAT:  16.72241
 CYCLE:     8 TIME:   0.016 TIME LEFT:  2.00D  GRAD.:     7.562 HEAT:  16.68966
 CYCLE:     9 TIME:   0.008 TIME LEFT:  2.00D  GRAD.:     6.880 HEAT:  16.66849
 CYCLE:    10 TIME:   0.008 TIME LEFT:  2.00D  GRAD.:     8.778 HEAT:  16.65208
 CYCLE:    11 TIME:   0.008 TIME LEFT:  2.00D  GRAD.:     5.392 HEAT:  16.62311
 CYCLE:    12 TIME:   0.012 TIME LEFT:  2.00D  GRAD.:     8.398 HEAT:  16.62262
 CYCLE:    13 TIME:   0.008 TIME LEFT:  2.00D  GRAD.:     5.132 HEAT:  16.60384
 CYCLE:    14 TIME:   0.012 TIME LEFT:  2.00D  GRAD.:     5.839 HEAT:  16.60115
 CYCLE:    15 TIME:   0.008 TIME LEFT:  2.00D  GRAD.:     2.604 HEAT:  16.58840
 CYCLE:    16 TIME:   0.016 TIME LEFT:  2.00D  GRAD.:     4.793 HEAT:  16.58666
 CYCLE:    17 TIME:   0.004 TIME LEFT:  2.00D  GRAD.:     2.271 HEAT:  16.57608
 CYCLE:    18 TIME:   0.008 TIME LEFT:  2.00D  GRAD.:     5.497 HEAT:  16.57233
 CYCLE:    19 TIME:   0.008 TIME LEFT:  2.00D  GRAD.:     3.327 HEAT:  16.55656
 CYCLE:    20 TIME:   0.012 TIME LEFT:  2.00D  GRAD.:     5.491 HEAT:  16.55487
 CYCLE:    21 TIME:   0.008 TIME LEFT:  2.00D  GRAD.:     3.226 HEAT:  16.54101
 CYCLE:    22 TIME:   0.012 TIME LEFT:  2.00D  GRAD.:     4.396 HEAT:  16.53913
 CYCLE:    23 TIME:   0.008 TIME LEFT:  2.00D  GRAD.:     3.972 HEAT:  16.53450
 CYCLE:    24 TIME:   0.008 TIME LEFT:  2.00D  GRAD.:     3.550 HEAT:  16.52999
 CYCLE:    25 TIME:   0.008 TIME LEFT:  2.00D  GRAD.:     2.004 HEAT:  16.52232
 CYCLE:    26 TIME:   0.020 TIME LEFT:  2.00D  GRAD.:     4.642 HEAT:  16.52611
 CYCLE:    27 TIME:   0.008 TIME LEFT:  2.00D  GRAD.:     1.734 HEAT:  16.51309
 CYCLE:    28 TIME:   0.008 TIME LEFT:  2.00D  GRAD.:     4.821 HEAT:  16.51727
 CYCLE:    29 TIME:   0.004 TIME LEFT:  2.00D  GRAD.:     3.862 HEAT:  16.51063
 CYCLE:    30 TIME:   0.016 TIME LEFT:  2.00D  GRAD.:     3.188 HEAT:  16.50694
 CYCLE:    31 TIME:   0.008 TIME LEFT:  2.00D  GRAD.:     2.908 HEAT:  16.50247
 CYCLE:    32 TIME:   0.020 TIME LEFT:  2.00D  GRAD.:     2.876 HEAT:  16.50089
 CYCLE:    33 TIME:   0.008 TIME LEFT:  2.00D  GRAD.:     2.929 HEAT:  16.49662
 CYCLE:    34 TIME:   0.008 TIME LEFT:  2.00D  GRAD.:     5.363 HEAT:  16.49573
 CYCLE:    35 TIME:   0.008 TIME LEFT:  2.00D  GRAD.:     5.103 HEAT:  16.49168
 CYCLE:    36 TIME:   0.008 TIME LEFT:  2.00D  GRAD.:     3.772 HEAT:  16.48162
 CYCLE:    37 TIME:   0.027 TIME LEFT:  2.00D  GRAD.:     2.426 HEAT:  16.47721
 CYCLE:    38 TIME:   0.008 TIME LEFT:  2.00D  GRAD.:     3.539 HEAT:  16.47634
 CYCLE:    39 TIME:   0.008 TIME LEFT:  2.00D  GRAD.:     2.736 HEAT:  16.47315
 CYCLE:    40 TIME:   0.027 TIME LEFT:  2.00D  GRAD.:     4.108 HEAT:  16.47394
 CYCLE:    41 TIME:   0.008 TIME LEFT:  2.00D  GRAD.:     1.075 HEAT:  16.46656
 CYCLE:    42 TIME:   0.008 TIME LEFT:  2.00D  GRAD.:     1.030 HEAT:  16.46287
 CYCLE:    43 TIME:   0.008 TIME LEFT:  2.00D  GRAD.:     2.340 HEAT:  16.45997
 CYCLE:    44 TIME:   0.004 TIME LEFT:  2.00D  GRAD.:     1.938 HEAT:  16.45503
 CYCLE:    45 TIME:   0.008 TIME LEFT:  2.00D  GRAD.:     1.323 HEAT:  16.44456
 CYCLE:    46 TIME:   0.008 TIME LEFT:  2.00D  GRAD.:     2.612 HEAT:  16.42915
 CYCLE:    47 TIME:   0.012 TIME LEFT:  2.00D  GRAD.:     2.968 HEAT:  16.41410
 CYCLE:    48 TIME:   0.004 TIME LEFT:  2.00D  GRAD.:     2.610 HEAT:  16.39642
 CYCLE:    49 TIME:   0.008 TIME LEFT:  2.00D  GRAD.:     3.358 HEAT:  16.38188
 CYCLE:    50 TIME:   0.008 TIME LEFT:  2.00D  GRAD.:     2.446 HEAT:  16.36484
 CYCLE:    51 TIME:   0.008 TIME LEFT:  2.00D  GRAD.:     3.343 HEAT:  16.34882
 CYCLE:    52 TIME:   0.008 TIME LEFT:  2.00D  GRAD.:     1.901 HEAT:  16.32305
 CYCLE:    53 TIME:   0.008 TIME LEFT:  2.00D  GRAD.:     2.219 HEAT:  16.29915
 CYCLE:    54 TIME:   0.008 TIME LEFT:  2.00D  GRAD.:     1.737 HEAT:  16.28800
 CYCLE:    55 TIME:   0.008 TIME LEFT:  2.00D  GRAD.:     1.346 HEAT:  16.28074
 CYCLE:    56 TIME:   0.008 TIME LEFT:  2.00D  GRAD.:     1.051 HEAT:  16.27786
 CYCLE:    57 TIME:   0.008 TIME LEFT:  2.00D  GRAD.:     1.093 HEAT:  16.27337
 CYCLE:    58 TIME:   0.004 TIME LEFT:  2.00D  GRAD.:     1.352 HEAT:  16.26629
 CYCLE:    59 TIME:   0.012 TIME LEFT:  2.00D  GRAD.:     1.483 HEAT:  16.25871
 CYCLE:    60 TIME:   0.008 TIME LEFT:  2.00D  GRAD.:     1.688 HEAT:  16.24719
 CYCLE:    61 TIME:   0.004 TIME LEFT:  2.00D  GRAD.:     1.770 HEAT:  16.23353
 CYCLE:    62 TIME:   0.008 TIME LEFT:  2.00D  GRAD.:     1.982 HEAT:  16.22459
 CYCLE:    63 TIME:   0.016 TIME LEFT:  2.00D  GRAD.:     1.503 HEAT:  16.21783
 CYCLE:    64 TIME:   0.008 TIME LEFT:  2.00D  GRAD.:     0.816 HEAT:  16.21192
 CYCLE:    65 TIME:   0.008 TIME LEFT:  2.00D  GRAD.:     0.589 HEAT:  16.20861
 CYCLE:    66 TIME:   0.008 TIME LEFT:  2.00D  GRAD.:     0.585 HEAT:  16.20602
 CYCLE:    67 TIME:   0.008 TIME LEFT:  2.00D  GRAD.:     0.370 HEAT:  16.20518
 CYCLE:    68 TIME:   0.008 TIME LEFT:  2.00D  GRAD.:     0.329 HEAT:  16.20576
 CYCLE:    69 TIME:   0.008 TIME LEFT:  2.00D  GRAD.:     0.319 HEAT:  16.20629
 CYCLE:    70 TIME:   0.004 TIME LEFT:  2.00D  GRAD.:     0.447 HEAT:  16.20701
 CYCLE:    71 TIME:   0.008 TIME LEFT:  2.00D  GRAD.:     0.508 HEAT:  16.20675
 CYCLE:    72 TIME:   0.008 TIME LEFT:  2.00D  GRAD.:     0.843 HEAT:  16.20548
 CYCLE:    73 TIME:   0.008 TIME LEFT:  2.00D  GRAD.:     0.920 HEAT:  16.20294
 CYCLE:    74 TIME:   0.012 TIME LEFT:  2.00D  GRAD.:     1.392 HEAT:  16.19592
 CYCLE:    75 TIME:   0.004 TIME LEFT:  2.00D  GRAD.:     0.699 HEAT:  16.19616
 CYCLE:    76 TIME:   0.008 TIME LEFT:  2.00D  GRAD.:     0.369 HEAT:  16.19697
 CYCLE:    77 TIME:   0.008 TIME LEFT:  2.00D  GRAD.:     0.273 HEAT:  16.19698
 CYCLE:    78 TIME:   0.008 TIME LEFT:  2.00D  GRAD.:     0.482 HEAT:  16.19597
 CYCLE:    79 TIME:   0.008 TIME LEFT:  2.00D  GRAD.:     0.296 HEAT:  16.19535
 CYCLE:    80 TIME:   0.008 TIME LEFT:  2.00D  GRAD.:     0.489 HEAT:  16.19485
 CYCLE:    81 TIME:   0.008 TIME LEFT:  2.00D  GRAD.:     0.090 HEAT:  16.19453
 CYCLE:    82 TIME:   0.008 TIME LEFT:  2.00D  GRAD.:     0.073 HEAT:  16.19473
 CYCLE:    83 TIME:   0.004 TIME LEFT:  2.00D  GRAD.:     0.036 HEAT:  16.19479

     GRADIENT =  0.03629 IS LESS THAN CUTOFF =  0.05000



 -------------------------------------------------------------------------------
 PM6 PRECISE POLAR MMOK XYZ ENPART STATIC SUPER BONDS LARGE PRTXYZ DISP ALLVEC CYCLES = 8000
 bmi
 All coordinates are Cartesian


     GEOMETRY OPTIMISED USING EIGENVECTOR FOLLOWING (EF).     
     SCF FIELD WAS ACHIEVED                                   


                              PM6 CALCULATION
                                                       MOPAC v22.1.1 MacOS
                                                       Tue May  7 17:20:22 2024




          FINAL HEAT OF FORMATION =         16.19479 KCAL/MOL =      67.75898 KJ/MOL

          TOTAL ENERGY            =     -31808.34072 KCAL/MOL = ELECTRONIC ENERGY + CORE-CORE REPULSION
          ENERGY OF ATOMS         =      31825.01928 KCAL/MOL
                              SUM =         16.67857 KCAL/MOL
          DISPERSION ENERGY       =          0.00000 KCAL/MOL
          MM CORRECTION FOR >N-   =         -0.48378 KCAL/MOL
                              SUM =         16.19479 KCAL/MOL = FINAL HEAT OF FORMATION



          TOTAL ENERGY            =      -1379.34020 EV
          ELECTRONIC ENERGY       =      -7202.33846 EV 
          CORE-CORE REPULSION     =       5822.99826 EV
          COSMO AREA              =        173.15 SQUARE ANGSTROMS
          COSMO VOLUME            =        175.32 CUBIC ANGSTROMS

          GRADIENT NORM           =          0.03629          =       0.00792 PER ATOM
          IONIZATION POTENTIAL    =          9.228783 EV
          HOMO LUMO ENERGIES (EV) =         -9.229  0.802
          NO. OF FILLED LEVELS    =         25
          MOLECULAR WEIGHT        =        124.1852         POINT GROUP:  C1  

          MOLECULAR DIMENSIONS (Angstroms)

            Atom       Atom       Distance
            H    19    H     8     7.79644
            H    20    H    10     4.10540
            H     9    H    13     3.59896


          SCF CALCULATIONS        =        107
 
          WALL-CLOCK TIME         =      0.809 SECONDS
          COMPUTATION TIME        =      5.950 SECONDS




   ATOM   CHEMICAL          X               Y               Z
  NUMBER   SYMBOL      (ANGSTROMS)     (ANGSTROMS)     (ANGSTROMS)
 
     1       N         -0.75568555  *   0.30242632  *   0.42724119  *
     2       C         -1.79698010  *   1.07618040  *  -0.10579786  *
     3       C         -2.78000352  *   0.16998318  *  -0.51385209  *
     4       N         -2.36428427  *  -1.13670417  *  -0.25941468  *
     5       C         -1.13438251  *  -1.04701477  *   0.29957049  *
     6       C          0.53499769  *   0.81463046  *   0.91889785  *
     7       H         -1.77743646  *   2.14565335  *  -0.14833433  *
     8       H         -3.73690187  *   0.37377956  *  -0.96020711  *
     9       H         -0.52381537  *  -1.87429814  *   0.62177899  *
    10       H          0.36053578  *   1.77152835  *   1.46318588  *
    11       C          1.54182692  *   1.03698332  *  -0.22201450  *
    12       H          0.94952721  *   0.09609142  *   1.66420717  *
    13       H          1.06382093  *   1.62514131  *  -1.03220595  *
    14       C          2.09862685  *  -0.26730058  *  -0.80591447  *
    15       H          2.37376289  *   1.66480690  *   0.15514622  *
    16       H          2.63401754  *  -0.03880932  *  -1.75023835  *
    17       H          1.26328934  *  -0.93670433  *  -1.09772837  *
    18       C          3.04035191  *  -0.99520133  *   0.14893543  *
    19       H          3.89894316  *  -0.37276056  *   0.42579541  *
    20       H          3.43619769  *  -1.90953139  *  -0.31000711  *
    21       H          2.53569202  *  -1.29063329  *   1.07537791  *

                             CARTESIAN COORDINATES

   1    N       -0.755685549     0.302426325     0.427241190
   2    C       -1.796980101     1.076180398    -0.105797863
   3    C       -2.780003516     0.169983184    -0.513852088
   4    N       -2.364284275    -1.136704167    -0.259414681
   5    C       -1.134382509    -1.047014775     0.299570491
   6    C        0.534997695     0.814630457     0.918897851
   7    H       -1.777436462     2.145653354    -0.148334333
   8    H       -3.736901871     0.373779558    -0.960207112
   9    H       -0.523815369    -1.874298141     0.621778990
  10    H        0.360535781     1.771528352     1.463185878
  11    C        1.541826916     1.036983318    -0.222014504
  12    H        0.949527215     0.096091416     1.664207170
  13    H        1.063820930     1.625141308    -1.032205948
  14    C        2.098626846    -0.267300575    -0.805914470
  15    H        2.373762892     1.664806898     0.155146220
  16    H        2.634017543    -0.038809316    -1.750238352
  17    H        1.263289343    -0.936704329    -1.097728368
  18    C        3.040351911    -0.995201333     0.148935429
  19    H        3.898943163    -0.372760561     0.425795405
  20    H        3.436197688    -1.909531389    -0.310007111
  21    H        2.535692023    -1.290633290     1.075377912


           Empirical Formula: C7 H12 N2  =    21 atoms



      MOLECULAR POINT GROUP   :   C1  


                EIGENVECTORS  


   Root No.       1         2         3         4         5         6         7         8

                 1 A       2 A       3 A       4 A       5 A       6 A       7 A       8 A   

               -33.845   -30.071   -28.169   -25.676   -25.297   -23.207   -20.985   -20.538
  
  S   N    1    0.5747    0.3742   -0.3278    0.1124   -0.1815   -0.0397    0.1280    0.1244
  Px  N    1   -0.1124    0.1849    0.0101   -0.2222   -0.0260    0.1770    0.2038    0.0065
  Py  N    1   -0.0573    0.0929   -0.0523    0.1143    0.2662    0.1222   -0.1709    0.3923
  Pz  N    1   -0.0582    0.0584   -0.0147   -0.0975   -0.0423    0.1251    0.1093   -0.0126
  S   C    2    0.3090    0.0015   -0.1069    0.3921    0.3320   -0.0624   -0.2583   -0.0634
  Px  C    2    0.0673    0.1284   -0.1006    0.0028   -0.1028   -0.0480   -0.1252    0.3100
  Py  C    2   -0.1729    0.0564    0.0001   -0.0413    0.0052    0.0296   -0.1182    0.0485
  Pz  C    2    0.0397    0.0523   -0.0534    0.0078   -0.0525   -0.0086   -0.0501    0.1436
  S   C    3    0.2677   -0.2322    0.1259    0.1470    0.3838    0.1501    0.3145   -0.2758
  Px  C    3    0.1429   -0.0525    0.0028    0.0563    0.0231   -0.0560   -0.1596    0.0446
  Py  C    3   -0.0612    0.1018   -0.0998    0.1808    0.0589   -0.0925   -0.1199   -0.2607
  Pz  C    3    0.0688   -0.0301    0.0042    0.0183    0.0064   -0.0167   -0.0672    0.0331
  S   N    4    0.3751   -0.4045    0.3040   -0.3089    0.0324    0.1711   -0.0258    0.3330
  Px  N    4    0.1207   -0.0658    0.0372   -0.0992   -0.1625   -0.0978   -0.2493   -0.0258
  Py  N    4    0.1602   -0.1191    0.0640    0.0323    0.1319    0.0681    0.1822   -0.0265
  Pz  N    4    0.0477   -0.0256    0.0113   -0.0465   -0.0824   -0.0431   -0.1239   -0.0124
  S   C    5    0.3722   -0.1096    0.0602   -0.2233   -0.3736   -0.1492   -0.1307   -0.2985
  Px  C    5   -0.0818    0.1874   -0.1167    0.0642   -0.0777   -0.0512    0.1653   -0.2537
  Py  C    5    0.1753    0.0561   -0.0878    0.0998   -0.0220   -0.0441    0.1582   -0.0268
  Pz  C    5   -0.0453    0.0781   -0.0593    0.0252   -0.0400   -0.0058    0.0666   -0.1200
  S   C    6    0.1451    0.4313    0.0167   -0.3341    0.1919    0.3391    0.0090   -0.0285
  Px  C    6   -0.0845   -0.0531    0.1672   -0.0644    0.0907   -0.0781   -0.1292   -0.1941
  Py  C    6   -0.0359   -0.0315    0.0177   -0.0025    0.1169   -0.0040   -0.1758    0.0651
  Pz  C    6   -0.0383   -0.0736   -0.0315    0.0024   -0.0378    0.1432    0.0228   -0.0442
  S   H    7    0.0696    0.0258   -0.0450    0.1579    0.1624   -0.0119   -0.1924   -0.0094
  S   H    8    0.0525   -0.0677    0.0446    0.0581    0.1707    0.0891    0.2296   -0.1926
  S   H    9    0.0851   -0.0076    0.0247   -0.1163   -0.1866   -0.0650   -0.0663   -0.2386
  S   H   10    0.0497    0.1634   -0.0014   -0.1419    0.1248    0.1911   -0.0723    0.0220
  S   C   11    0.0514    0.3097    0.3350   -0.2018    0.2708   -0.3027   -0.1669   -0.1102
  Px  C   11   -0.0283   -0.0544    0.0722    0.0869   -0.0481   -0.0932    0.0006   -0.0179
  Py  C   11   -0.0110   -0.0458   -0.0836   -0.0522    0.0629    0.0168   -0.1684   -0.0562
  Pz  C   11    0.0116    0.0487   -0.0300   -0.0890    0.0422    0.1843   -0.0821   -0.0933
  S   H   12    0.0511    0.1685    0.0350   -0.1518    0.0437    0.1941    0.0420   -0.1081
  S   H   13    0.0261    0.1251    0.1243   -0.0861    0.1349   -0.1838   -0.0954   -0.0197
  S   C   14    0.0269    0.2141    0.4576    0.1841   -0.0770   -0.2465    0.2639    0.1805
  Px  C   14   -0.0113   -0.0241    0.0292    0.0977   -0.0714    0.1135   -0.0583    0.0028
  Py  C   14    0.0048    0.0382    0.0194   -0.1004    0.1142   -0.1678   -0.0467   -0.0384
  Pz  C   14    0.0070    0.0466    0.0643    0.0104   -0.0105    0.1024   -0.1128   -0.1011
  S   H   15    0.0142    0.1189    0.1534   -0.0854    0.1271   -0.1315   -0.1494   -0.0968
  S   H   16    0.0081    0.0782    0.1907    0.0922   -0.0353   -0.1472    0.1527    0.1288
  S   H   17    0.0206    0.0930    0.1810    0.0706   -0.0485   -0.1174    0.1786    0.0998
  S   C   18    0.0120    0.1349    0.3791    0.3433   -0.2571    0.3618   -0.1669   -0.0624
  Px  C   18   -0.0057   -0.0362   -0.0608   -0.0026   -0.0022    0.0690   -0.0957   -0.0378
  Py  C   18    0.0031    0.0305    0.0560   -0.0027    0.0181   -0.0781    0.0392    0.0192
  Pz  C   18   -0.0009   -0.0161   -0.0532   -0.0340    0.0129    0.0842   -0.1111   -0.0929
  S   H   19    0.0045    0.0570    0.1625    0.1499   -0.1097    0.1803   -0.1254   -0.0545
  S   H   20    0.0039    0.0480    0.1526    0.1650   -0.1283    0.1941   -0.0886   -0.0232
  S   H   21    0.0083    0.0668    0.1614    0.1371   -0.1135    0.2054   -0.1104   -0.0747


   Root No.       9        10        11        12        13        14        15        16

                 9 A      10 A      11 A      12 A      13 A      14 A      15 A      16 A   

               -19.933   -17.708   -16.504   -15.933   -15.071   -14.863   -14.620   -14.084
  
  S   N    1   -0.1811    0.0848    0.0430   -0.0598   -0.0390   -0.0180   -0.0182   -0.1050
  Px  N    1    0.0640    0.3513   -0.1170   -0.0493    0.2601   -0.1526   -0.0406   -0.0373
  Py  N    1    0.0971    0.1540    0.0375    0.0140   -0.2609   -0.0922   -0.2250    0.1072
  Pz  N    1    0.0757    0.0261    0.2701   -0.1798    0.0477    0.3435   -0.1700   -0.0931
  S   C    2    0.2709    0.0303   -0.0523   -0.0852    0.0523    0.0354    0.0722    0.0816
  Px  C    2   -0.1110    0.0120   -0.0320    0.0114   -0.2508   -0.0998    0.1924    0.0896
  Py  C    2    0.2092    0.2680    0.0047   -0.2459    0.1680    0.1615    0.3918   -0.1360
  Pz  C    2   -0.0441   -0.0638    0.1403   -0.0697   -0.1871    0.2134   -0.0467   -0.0231
  S   C    3   -0.0162    0.1095    0.0576    0.0610   -0.0807   -0.0500   -0.0956   -0.0033
  Px  C    3    0.0403   -0.2190   -0.1473    0.0573    0.2404   -0.0486   -0.0459    0.3100
  Py  C    3    0.2101    0.0040   -0.0012    0.0562    0.0977   -0.0904   -0.3155   -0.2399
  Pz  C    3    0.0138   -0.1292    0.0274   -0.0353    0.0589    0.2026   -0.1069    0.0799
  S   N    4    0.0025    0.1427   -0.0150   -0.1301    0.0210    0.0407    0.0919   -0.0156
  Px  N    4    0.1659   -0.0534   -0.0685    0.0870    0.1473   -0.1799   -0.2189   -0.2156
  Py  N    4   -0.1530   -0.1168   -0.0148    0.0335    0.0501    0.0736    0.1258    0.1945
  Pz  N    4    0.0871   -0.0508    0.0840   -0.0336    0.0153    0.1794   -0.2289   -0.1986
  S   C    5    0.1902    0.0933    0.0704    0.0597   -0.0797   -0.0207    0.0399    0.0112
  Px  C    5   -0.0238    0.1121   -0.0081    0.0438   -0.1270   -0.0576    0.2750    0.3290
  Py  C    5   -0.2595   -0.2679   -0.0566   -0.0267    0.2780    0.1055    0.1576   -0.2165
  Pz  C    5    0.0098    0.0093    0.1745   -0.0783   -0.1246    0.2665   -0.0120    0.0776
  S   C    6    0.1848   -0.1373   -0.0208    0.0752    0.0608   -0.0660   -0.0233    0.0217
  Px  C    6   -0.0342   -0.2936   -0.1930    0.0104   -0.0738   -0.0380    0.1973    0.0201
  Py  C    6   -0.0161   -0.0577    0.2224    0.3537   -0.1950   -0.0382    0.0760   -0.0612
  Pz  C    6    0.1705   -0.3160    0.2810   -0.1008   -0.0108    0.1633    0.0193    0.1293
  S   H    7    0.2578    0.1842   -0.0252   -0.2025    0.1482    0.1301    0.3302   -0.0451
  S   H    8   -0.0063    0.2098    0.1079    0.0165   -0.1985   -0.0680   -0.0341   -0.2540
  S   H    9    0.2102    0.2132    0.0900    0.0498   -0.2777   -0.0287    0.0461    0.2908
  S   H   10    0.1357   -0.1669    0.2334    0.2117   -0.0820    0.0079    0.0302    0.0178
  S   C   11   -0.2510    0.0767   -0.0253   -0.0323   -0.0057    0.0611   -0.0153   -0.0293
  Px  C   11   -0.0442   -0.1178    0.2572   -0.3358   -0.1137   -0.0494    0.0508   -0.0725
  Py  C   11   -0.1676    0.0734    0.2697    0.2224    0.0614    0.0948    0.1469   -0.0978
  Pz  C   11    0.0219   -0.1909   -0.1151   -0.0309   -0.1672   -0.2303    0.2111   -0.2071
  S   H   12    0.1534   -0.2444   -0.0405   -0.1669    0.0781    0.0653    0.0106    0.1243
  S   H   13   -0.1619    0.1844    0.0638    0.1769    0.1410    0.1990   -0.0724    0.0838
  S   C   14    0.2500   -0.0899    0.0205   -0.0203   -0.0487   -0.0353   -0.0064   -0.0205
  Px  C   14   -0.0446   -0.0379    0.3169   -0.0807    0.0848   -0.2832    0.0974   -0.0839
  Py  C   14   -0.1266    0.0408    0.1157   -0.2687    0.1004   -0.0715   -0.1720    0.1957
  Pz  C   14   -0.1181   -0.0201   -0.2101   -0.2526   -0.2276   -0.0462   -0.0416   -0.1505
  S   H   15   -0.1889   -0.0361    0.1973   -0.1121   -0.0769   -0.0169    0.1291   -0.1426
  S   H   16    0.1453   -0.0371    0.2490    0.0742    0.1575   -0.0961    0.0307    0.0845
  S   H   17    0.2006   -0.0272   -0.1610    0.1883   -0.0712    0.1618    0.0345   -0.0106
  S   C   18   -0.1386    0.0631   -0.0045    0.0244    0.0076    0.0039   -0.0106   -0.0133
  Px  C   18   -0.1173    0.0906    0.2058    0.0540    0.2907   -0.1588   -0.0292    0.2242
  Py  C   18    0.0236   -0.0689    0.1013   -0.3067   -0.0575   -0.3297   -0.0858    0.0719
  Pz  C   18   -0.1229    0.0482   -0.1618   -0.1486   -0.0840    0.1833   -0.2066    0.2097
  S   H   19   -0.1316    0.0569    0.1186   -0.1026    0.1226   -0.1832   -0.0896    0.1848
  S   H   20   -0.0705    0.0744    0.0359    0.2386    0.1343    0.1008    0.0988   -0.0548
  S   H   21   -0.0908    0.0318   -0.1764   -0.0411   -0.1254    0.2266   -0.1006    0.0420


   Root No.      17        18        19        20        21        22        23        24

                17 A      18 A      19 A      20 A      21 A      22 A      23 A      24 A   

               -13.725   -13.531   -13.517   -12.237   -12.156   -11.921   -10.373   -10.095
  
  S   N    1    0.0210   -0.0324    0.0338    0.0444   -0.0000    0.0207   -0.1025    0.0118
  Px  N    1   -0.1008    0.1849    0.1758    0.1102   -0.0294   -0.0126    0.0822   -0.2302
  Py  N    1   -0.0868   -0.1411    0.1216    0.0076    0.0284    0.0260    0.1818    0.0390
  Pz  N    1   -0.1898    0.0647   -0.0324    0.0239   -0.0567    0.0795   -0.0103    0.5349
  S   C    2   -0.0504   -0.0135    0.0241   -0.0000    0.0185    0.0069   -0.0796   -0.0080
  Px  C    2    0.1982   -0.1776   -0.0243   -0.0924    0.0411   -0.0136    0.1774   -0.1417
  Py  C    2    0.1131    0.0821   -0.1501    0.0018   -0.0359   -0.0273    0.1369    0.0306
  Pz  C    2   -0.0942   -0.1347   -0.1634    0.0005    0.0357    0.0010    0.0699    0.3115
  S   C    3   -0.0125   -0.0088    0.0236    0.0032   -0.0045   -0.0018    0.0931    0.0078
  Px  C    3   -0.2279    0.2281    0.2325    0.0265   -0.0575    0.0340   -0.0474    0.1046
  Py  C    3    0.0349   -0.0356    0.0527    0.0371    0.0139    0.0298   -0.2498   -0.0275
  Pz  C    3   -0.3173    0.0442   -0.0998    0.0891    0.0506   -0.0590    0.0210   -0.2212
  S   N    4   -0.0030   -0.0313    0.0234    0.0275    0.0218    0.0309   -0.4233   -0.0274
  Px  N    4    0.1851    0.0235    0.0996   -0.0341   -0.0559    0.0422    0.3443    0.2727
  Py  N    4   -0.1169    0.1465   -0.0330   -0.0140   -0.0447   -0.0533    0.6189    0.0167
  Pz  N    4   -0.1735   -0.0725   -0.2067    0.0741    0.0895   -0.0975    0.1710   -0.5343
  S   C    5    0.0310    0.0238   -0.0592   -0.0232   -0.0240   -0.0356    0.1390    0.0076
  Px  C    5   -0.0423    0.0793    0.0767   -0.0151   -0.0323    0.0068   -0.1841    0.0555
  Py  C    5    0.1410    0.1136   -0.1498   -0.0088   -0.0343   -0.0221   -0.0321   -0.0172
  Pz  C    5   -0.2515   -0.0278   -0.1587    0.0301    0.0482   -0.0590   -0.0782   -0.1509
  S   C    6   -0.0135   -0.0225   -0.0520   -0.0019    0.0158   -0.0601    0.0175    0.0024
  Px  C    6    0.0135   -0.2873   -0.1786   -0.0051    0.1531   -0.0747   -0.0818    0.0692
  Py  C    6    0.0864    0.3757   -0.2280    0.0551   -0.2337   -0.1019   -0.1039   -0.0140
  Pz  C    6    0.3021   -0.0353    0.1907   -0.2025   -0.0538    0.1685   -0.0250   -0.1379
  S   H    7    0.0631    0.0630   -0.1002   -0.0054   -0.0195   -0.0202    0.0748    0.0075
  S   H    8    0.2431   -0.1751   -0.1026   -0.0423    0.0235   -0.0023    0.0687    0.0004
  S   H    9   -0.1335   -0.0298    0.0509   -0.0099    0.0080   -0.0139    0.0260    0.0043
  S   H   10    0.1670    0.2660   -0.0881   -0.0453   -0.2061   -0.0289   -0.0676   -0.0959
  S   C   11   -0.0584   -0.0515    0.0009   -0.0303   -0.0680   -0.0016   -0.0085    0.0552
  Px  C   11    0.0531    0.0216    0.3573    0.2082   -0.2754    0.1060    0.0543   -0.1515
  Py  C   11   -0.0021    0.0826    0.2422    0.0691    0.4079    0.2128    0.0338   -0.0279
  Pz  C   11   -0.2326   -0.0696   -0.0560    0.4078    0.0206   -0.0512    0.0067    0.1231
  S   H   12    0.1200   -0.2845    0.1414   -0.1412    0.1719    0.0801    0.0347   -0.0608
  S   H   13    0.0847    0.0355    0.0140   -0.3018    0.2246    0.0848   -0.0104   -0.0112
  S   C   14    0.0043    0.0608   -0.0302   -0.0053   -0.0315   -0.0128   -0.0059   -0.0040
  Px  C   14   -0.1417    0.0537    0.0891   -0.1926    0.2884   -0.3703   -0.0135    0.0519
  Py  C   14    0.1375   -0.0918   -0.0484   -0.0327   -0.3136   -0.3642   -0.0269   -0.0035
  Pz  C   14   -0.1602    0.1861   -0.0065   -0.4042   -0.1933    0.1412   -0.0087   -0.0523
  S   H   15   -0.0550    0.0057    0.2879    0.2597   -0.0123    0.1632    0.0519   -0.0520
  S   H   16    0.0758   -0.0829    0.0147    0.1962    0.1814   -0.3160   -0.0077    0.0616
  S   H   17    0.0529    0.0082   -0.0345    0.2158    0.0017    0.3715    0.0231   -0.0295
  S   C   18   -0.0179    0.0382   -0.0113   -0.0760    0.0228   -0.0002   -0.0045    0.0004
  Px  C   18    0.0148   -0.2894   -0.2731    0.1771   -0.2166    0.2723    0.0098   -0.0140
  Py  C   18   -0.0006    0.2868   -0.2817   -0.0750    0.3019    0.2557    0.0027    0.0023
  Pz  C   18    0.3644    0.1593   -0.0384    0.3781    0.1305   -0.1219    0.0013    0.0236
  S   H   19    0.0658    0.0029   -0.2841    0.1173    0.0411    0.2722    0.0075   -0.0053
  S   H   20   -0.1169   -0.2848    0.1070   -0.0661   -0.2938   -0.0513   -0.0020   -0.0149
  S   H   21    0.2171    0.1437    0.1279    0.1583    0.1314   -0.2406   -0.0044    0.0222


   Root No.      25        26        27        28        29        30        31        32

                25 A      26 A      27 A      28 A      29 A      30 A      31 A      32 A   

                -9.229     0.802     1.474     1.764     3.394     3.609     3.784     4.075
  
  S   N    1   -0.0089   -0.0932    0.4980    0.0165    0.0223   -0.0402    0.0145   -0.0405
  Px  N    1    0.1047    0.1616    0.1378    0.0260   -0.0074    0.1809   -0.1363    0.2842
  Py  N    1   -0.0172   -0.0320    0.0286   -0.0084   -0.0817    0.2609    0.0029   -0.3176
  Pz  N    1   -0.2448   -0.4326   -0.0645   -0.0485   -0.1520    0.0281   -0.0221    0.1460
  S   C    2    0.0007    0.0279   -0.1851   -0.0033    0.0036   -0.0630   -0.0012    0.1099
  Px  C    2   -0.2333   -0.1905   -0.3163    0.1218   -0.0861    0.1486   -0.1587    0.4068
  Py  C    2    0.0220   -0.0039    0.1751   -0.0103   -0.0218    0.1461   -0.0228   -0.1397
  Pz  C    2    0.4982    0.5283   -0.0418   -0.2797    0.0323    0.0799   -0.0910    0.1995
  S   C    3   -0.0036   -0.0101    0.0568    0.0016    0.0061   -0.0415   -0.0119    0.1500
  Px  C    3   -0.2343    0.1264    0.0576   -0.2487   -0.0098    0.0568   -0.0585    0.1577
  Py  C    3    0.0294   -0.0091   -0.0384    0.0225   -0.1072    0.4284   -0.1704   -0.0435
  Pz  C    3    0.5094   -0.2956   -0.0463    0.5462   -0.0216    0.0019   -0.0122    0.0719
  S   N    4    0.0078    0.0058   -0.0324   -0.0026   -0.0636    0.2573   -0.1052   -0.0171
  Px  N    4    0.0247    0.0671    0.0729    0.2517   -0.0267    0.1659   -0.1107    0.1424
  Py  N    4   -0.0157   -0.0281    0.0969   -0.0233   -0.0506    0.2442   -0.0892   -0.1157
  Pz  N    4   -0.0765   -0.1820    0.0232   -0.5404   -0.0405    0.0519   -0.0404    0.0734
  S   C    5    0.0031    0.0293   -0.1986   -0.0118   -0.0123   -0.0340    0.0783   -0.1136
  Px  C    5    0.2316   -0.1958   -0.1567   -0.1869   -0.1224    0.3249   -0.1340    0.0670
  Py  C    5   -0.0126    0.0789   -0.3355    0.0007   -0.0931    0.2872   -0.0305   -0.2099
  Pz  C    5   -0.4886    0.4769    0.0165    0.3877    0.0244    0.1624   -0.0771    0.0374
  S   C    6    0.0039    0.0648   -0.2044   -0.0023   -0.2283   -0.1175    0.1319   -0.0284
  Px  C    6   -0.0208   -0.0512    0.4764    0.0206   -0.3871    0.0922   -0.0513    0.2178
  Py  C    6   -0.0016   -0.0317    0.1883    0.0096   -0.0988    0.1754    0.1267   -0.1799
  Pz  C    6    0.0408   -0.0961    0.1818   -0.0055    0.4463    0.1582   -0.1831    0.0755
  S   H    7   -0.0006   -0.0062    0.0475    0.0021    0.0382   -0.1458    0.0401    0.0640
  S   H    8   -0.0005    0.0106   -0.0688   -0.0006   -0.0137    0.0404   -0.0411    0.0936
  S   H    9   -0.0029   -0.0088    0.0662    0.0035    0.0003    0.0419    0.0010   -0.1488
  S   H   10    0.0352    0.0534    0.0177    0.0063   -0.0272   -0.1760   -0.1707    0.2021
  S   C   11   -0.0217   -0.0633   -0.0102   -0.0108    0.1736   -0.0446   -0.2234   -0.0632
  Px  C   11    0.0461    0.0892    0.0115    0.0151   -0.4282   -0.1040   -0.0500   -0.0227
  Py  C   11    0.0153    0.0215    0.0095   -0.0002   -0.0047    0.1804    0.4579    0.1223
  Pz  C   11   -0.0553   -0.1008   -0.0220   -0.0127    0.4791    0.1407   -0.0162    0.0183
  S   H   12    0.0252    0.0404    0.0159    0.0070   -0.0558    0.0813    0.1730   -0.2787
  S   H   13    0.0099   -0.0155    0.0371    0.0016    0.0510   -0.0061   -0.1646   -0.0212
  S   C   14   -0.0070   -0.0014    0.0089    0.0060    0.0624    0.0715    0.0921   -0.0449
  Px  C   14    0.0117   -0.0050   -0.0112   -0.0092   -0.0756   -0.1002   -0.2825   -0.1727
  Py  C   14    0.0146   -0.0093    0.0072   -0.0082    0.1123    0.2135    0.4931    0.1904
  Pz  C   14    0.0165   -0.0034    0.0011   -0.0032    0.1006    0.0739    0.0209   -0.1033
  S   H   15    0.0113    0.0316   -0.0796    0.0009    0.0445   -0.0659   -0.0450   -0.0190
  S   H   16   -0.0098   -0.0169   -0.0083   -0.0041    0.1235    0.0242   -0.0359   -0.0136
  S   H   17   -0.0053    0.0038   -0.0006   -0.0059   -0.0375    0.0215    0.0443   -0.0123
  S   C   18    0.0020    0.0005    0.0005   -0.0003   -0.0065    0.0115    0.0867    0.0949
  Px  C   18   -0.0060   -0.0019    0.0009    0.0002    0.0011   -0.0267   -0.1571   -0.1584
  Py  C   18   -0.0004    0.0014    0.0029   -0.0004    0.0010    0.0399    0.1557    0.1113
  Pz  C   18   -0.0096   -0.0040   -0.0037    0.0001    0.0227   -0.0245   -0.1485   -0.1147
  S   H   19   -0.0054    0.0015   -0.0002    0.0016   -0.0072   -0.0125   -0.0061    0.0222
  S   H   20    0.0034   -0.0013    0.0024   -0.0005    0.0349    0.0516    0.1133    0.0471
  S   H   21   -0.0021    0.0004   -0.0005   -0.0005   -0.0205   -0.0026    0.0145   -0.0032


   Root No.      33        34        35        36        37        38        39        40

                33 A      34 A      35 A      36 A      37 A      38 A      39 A      40 A   

                 4.147     4.650     4.922     5.114     5.224     5.273     5.385     5.588
  
  S   N    1   -0.0209    0.0345    0.0165    0.0032    0.0137   -0.0083   -0.0099    0.0079
  Px  N    1    0.0810   -0.2464   -0.0332    0.0068    0.0183    0.1726   -0.0240   -0.0479
  Py  N    1   -0.0878   -0.1487   -0.2480    0.2740   -0.0120    0.0627   -0.0316    0.0420
  Pz  N    1    0.0523   -0.0649    0.0198    0.0233    0.0113    0.0822    0.0049   -0.0181
  S   C    2    0.0435   -0.0080   -0.1548   -0.1448    0.0737    0.4224   -0.0195   -0.0833
  Px  C    2    0.0984   -0.1024    0.1970    0.0317   -0.0325   -0.2265   -0.0271   -0.0442
  Py  C    2   -0.0612   -0.0135   -0.0316    0.2061   -0.0204   -0.1590   -0.0851   -0.0546
  Pz  C    2    0.0483   -0.0653    0.0841   -0.0126   -0.0161   -0.0978   -0.0090   -0.0194
  S   C    3    0.0591   -0.2428    0.1374    0.2330   -0.0650   -0.3279   -0.0413    0.0026
  Px  C    3    0.0418   -0.1228    0.1589    0.0702   -0.0318   -0.1966    0.0024    0.0181
  Py  C    3   -0.0782    0.1812    0.0477    0.0883   -0.0397   -0.3144   -0.0484   -0.0351
  Pz  C    3    0.0231   -0.0598    0.0720    0.0343   -0.0134   -0.0748    0.0018    0.0111
  S   N    4   -0.0468    0.1578    0.0232   -0.0834    0.0216    0.0481    0.0204    0.0183
  Px  N    4    0.0079    0.0932    0.1391   -0.1813    0.0420    0.1684    0.0723    0.0724
  Py  N    4   -0.0875    0.2912   -0.0561   -0.1077    0.0320    0.0633   -0.0056   -0.0227
  Pz  N    4    0.0081    0.0342    0.0732   -0.0755    0.0215    0.0745    0.0380    0.0337
  S   C    5    0.0172   -0.3685   -0.2229    0.3209    0.0002    0.0802   -0.0576   -0.0000
  Px  C    5   -0.0157   -0.0109    0.0548   -0.0400    0.0651    0.2356    0.0667    0.1020
  Py  C    5   -0.0607   -0.0292   -0.1437    0.0884   -0.0456   -0.0733   -0.0181   -0.0201
  Pz  C    5   -0.0047   -0.0218    0.0146   -0.0311    0.0222    0.1109    0.0198    0.0494
  S   C    6    0.0689   -0.0086   -0.2497   -0.3330    0.1261   -0.2533   -0.0997    0.0269
  Px  C    6    0.0837   -0.0576   -0.2174    0.1110    0.0851    0.0600   -0.0883   -0.0030
  Py  C    6    0.0186   -0.3696    0.2567   -0.2634    0.0620    0.0252    0.0726    0.0224
  Pz  C    6   -0.0400   -0.1852   -0.2440   -0.1782    0.0707   -0.0708   -0.1716   -0.0024
  S   H    7    0.0317    0.0129    0.1746   -0.0967   -0.0346   -0.2036    0.0896    0.1152
  S   H    8    0.0174    0.0583    0.0620   -0.1711    0.0353    0.1577    0.0539    0.0270
  S   H    9   -0.0720    0.3402    0.0278   -0.1763   -0.0590   -0.2809   -0.0068   -0.0776
  S   H   10   -0.0447    0.3989    0.0186    0.4900   -0.1415    0.1768    0.0580   -0.0328
  S   C   11   -0.1526   -0.0872    0.0561   -0.0595   -0.1036    0.0446   -0.0300   -0.0713
  Px  C   11    0.0793   -0.0579   -0.1620   -0.1168   -0.2685   -0.0589    0.3387   -0.0464
  Py  C   11    0.2807    0.1348   -0.0366    0.0521   -0.0035    0.0150   -0.0363   -0.1459
  Pz  C   11    0.0815   -0.0137   -0.0996   -0.0077   -0.2974    0.0030    0.2560   -0.0516
  S   H   12   -0.0392   -0.1108    0.5439    0.1262   -0.0873    0.1846    0.2266    0.0043
  S   H   13    0.1105   -0.0480   -0.1989   -0.0522   -0.2646   -0.0622    0.3613    0.0542
  S   C   14    0.3100    0.0474    0.0331    0.0232    0.0772    0.0120   -0.1115   -0.1135
  Px  C   14    0.2348   -0.0097    0.0606   -0.0787   -0.2042    0.0385   -0.2782    0.0592
  Py  C   14    0.0335    0.0972   -0.0559    0.0056   -0.1693    0.0119   -0.1227   -0.0317
  Pz  C   14    0.4989    0.1046    0.0335    0.0991    0.1912   -0.0034    0.0618   -0.0369
  S   H   15   -0.1769    0.0480    0.1482    0.0963    0.3872   -0.0044   -0.3026    0.1673
  S   H   16    0.0819    0.0402   -0.0134    0.1145    0.2666   -0.0344    0.3064    0.0256
  S   H   17    0.1338    0.0349   -0.0125   -0.0638   -0.3057    0.0308   -0.2080    0.1009
  S   C   18   -0.1834   -0.0151   -0.0620   -0.0229   -0.0067   -0.0203   -0.0004    0.0148
  Px  C   18    0.3164    0.0161    0.1169   -0.0073   -0.1753    0.0886   -0.2694   -0.0329
  Py  C   18   -0.2149    0.0021   -0.0257    0.0039   -0.1910    0.0269   -0.0363    0.4759
  Pz  C   18    0.3614    0.0444   -0.0446    0.0346    0.1745   -0.0522    0.0694    0.3523
  S   H   19   -0.1001   -0.0207   -0.0300    0.0092    0.2355   -0.0648    0.2354   -0.3682
  S   H   20    0.0246    0.0394   -0.0464    0.0456   -0.0124   -0.0188    0.0965    0.5642
  S   H   21   -0.0980   -0.0251    0.1064   -0.0367   -0.2949    0.1031   -0.2411   -0.2032


   Root No.      41        42        43        44        45        46        47        48

                41 A      42 A      43 A      44 A      45 A      46 A      47 A      48 A   

                 5.667     5.786     5.883     5.924     6.053     6.217     6.406     6.567
  
  S   N    1    0.0142   -0.0123   -0.0558   -0.0088    0.0413   -0.0048    0.0174   -0.0025
  Px  N    1   -0.1902    0.0440    0.2303    0.0127   -0.2463    0.0092    0.0440    0.0112
  Py  N    1    0.2315    0.0241    0.2045    0.0501    0.0231    0.0165    0.0360   -0.0033
  Pz  N    1   -0.0964    0.0328    0.0935   -0.0205   -0.1120   -0.0031    0.0166    0.0093
  S   C    2   -0.3739    0.0008    0.0049   -0.0564    0.0031   -0.0067   -0.1092    0.0085
  Px  C    2   -0.1749   -0.0060   -0.0523   -0.0129   -0.0701   -0.0057   -0.0071    0.0031
  Py  C    2   -0.2270   -0.0652   -0.1929   -0.0683    0.4746    0.0032   -0.0489   -0.0063
  Pz  C    2   -0.0747    0.0004   -0.0138   -0.0020   -0.0587   -0.0015   -0.0002    0.0015
  S   C    3    0.0282   -0.0137    0.0042    0.0031    0.1130   -0.0190   -0.3927    0.0042
  Px  C    3    0.0473   -0.0019    0.0760   -0.0051    0.3315    0.0449    0.3982   -0.0085
  Py  C    3   -0.0814   -0.0368   -0.2873   -0.0026   -0.2555   -0.0216    0.1327   -0.0055
  Pz  C    3    0.0279   -0.0002    0.0490   -0.0025    0.1653    0.0188    0.1747   -0.0038
  S   N    4    0.0627   -0.0130   -0.0840    0.0008   -0.0338   -0.0066   -0.0277   -0.0010
  Px  N    4    0.2147    0.0002    0.0939    0.0060    0.2310   -0.0002   -0.3031    0.0043
  Py  N    4   -0.0768   -0.0330   -0.2788   -0.0157   -0.2515   -0.0225    0.1361   -0.0047
  Pz  N    4    0.1002    0.0053    0.0546    0.0013    0.1184    0.0060   -0.1459    0.0030
  S   C    5    0.0543   -0.0273   -0.1453    0.0065   -0.1443   -0.0128    0.1846   -0.0118
  Px  C    5    0.3523   -0.0337   -0.1150    0.0075    0.1686   -0.0041   -0.1688   -0.0058
  Py  C    5   -0.0188    0.0876    0.4930    0.0515    0.0260    0.0446   -0.0775    0.0139
  Pz  C    5    0.1661   -0.0289   -0.0705    0.0051    0.0750   -0.0187   -0.0713   -0.0057
  S   C    6    0.0839    0.0538   -0.1596    0.0167    0.1225   -0.0241   -0.0319   -0.0382
  Px  C    6    0.0006    0.0810    0.1440   -0.0104   -0.0856   -0.0043    0.0322   -0.0048
  Py  C    6   -0.1455    0.0314    0.0109   -0.0569   -0.0818   -0.0354    0.0060    0.0178
  Pz  C    6    0.0240   -0.0142    0.0436    0.0820   -0.0149   -0.0070    0.0084   -0.0345
  S   H    7    0.4929    0.0540    0.1629    0.1071   -0.3955    0.0013    0.1071   -0.0021
  S   H    8    0.0473    0.0167    0.1356   -0.0075    0.2944    0.0610    0.6263   -0.0094
  S   H    9   -0.2658    0.1026    0.4799    0.0281    0.0157    0.0577   -0.0712    0.0240
  S   H   10    0.0349   -0.0427    0.0750    0.0071   -0.0100    0.0338    0.0117    0.0162
  S   C   11   -0.0492   -0.2954    0.0106    0.4627    0.0101    0.0083    0.0003   -0.0483
  Px  C   11   -0.0190    0.0060   -0.0724    0.0996    0.0371    0.0159   -0.0109    0.0090
  Py  C   11    0.0278   -0.1117   -0.0150    0.2517    0.0195    0.0960   -0.0065   -0.0233
  Pz  C   11    0.0149    0.0429   -0.0265   -0.1503    0.0001    0.0799   -0.0057    0.0463
  S   H   12   -0.1331   -0.0642    0.0230   -0.0722   -0.0736    0.0065    0.0121    0.0725
  S   H   13    0.0205    0.2652   -0.0485   -0.4486    0.0035    0.0215   -0.0061    0.0587
  S   C   14    0.0539    0.0136   -0.0389   -0.0908   -0.0309    0.5424   -0.0282   -0.0054
  Px  C   14    0.0307   -0.3059    0.0797   -0.1681   -0.0246   -0.0998    0.0083   -0.0858
  Py  C   14    0.0666   -0.1044    0.0484   -0.2234   -0.0037   -0.1609    0.0123    0.0648
  Pz  C   14   -0.0141    0.1711    0.0021    0.0917    0.0254   -0.2973    0.0137   -0.0946
  S   H   15    0.0295    0.2257    0.0438   -0.4020   -0.0315   -0.0669    0.0082    0.0333
  S   H   16   -0.0786    0.2754   -0.0185    0.2593    0.0484   -0.4550    0.0201   -0.0222
  S   H   17    0.0244   -0.2615    0.0949   -0.1505    0.0070   -0.5410    0.0341   -0.0224
  S   C   18    0.0112   -0.0289   -0.0170    0.0622    0.0175   -0.0643    0.0139    0.6273
  Px  C   18    0.0180    0.3334   -0.0816    0.1483    0.0208    0.0568   -0.0007    0.1400
  Py  C   18   -0.1272    0.1588   -0.0452    0.1495    0.0075    0.0451   -0.0054   -0.1077
  Pz  C   18   -0.0884   -0.2465    0.0351   -0.0035   -0.0221    0.1368   -0.0041    0.1270
  S   H   19    0.0749   -0.2752    0.0864   -0.2147   -0.0246   -0.0363   -0.0051   -0.4176
  S   H   20   -0.1574   -0.0696    0.0158    0.0224   -0.0217    0.1203   -0.0137   -0.4197
  S   H   21    0.0564    0.4109   -0.0759    0.0741    0.0215   -0.0160   -0.0067   -0.4091

           SUPERDELOCALIZABILITIES

 Mulliken electronegativity:        4.213294
 Parr & Pople absolute hardness:    5.015489
 Schuurmann MO shift alpha:        -4.213294
 
 Ehomo:                            -9.228783
 Elumo:                             0.802195


  a   n        Dn(r)        De(r)   q(r) - Z(r)

  N   1    -0.396480    -0.433357    -5.119003
  C   2    -0.500898    -0.415827    -4.203115
  C   3    -0.478396    -0.410881    -4.100145
  N   4    -0.343741    -0.567765    -5.299391
  C   5    -0.527725    -0.379181    -4.024067
  C   6    -0.493964    -0.335154    -4.119088
  C  11    -0.430046    -0.382510    -4.291004
  C  14    -0.418969    -0.382265    -4.217684
  C  18    -0.369531    -0.405307    -4.463885

 Total:    -3.959750    -3.712248

  a   n        piS(r)

  N   1    -0.175054
  C   2    -0.213491
  C   3    -0.208489
  N   4    -0.192201
  C   5    -0.206766
  C   6    -0.189042
  C  11    -0.194234
  C  14    -0.192742
  C  18    -0.186360

 Total:    -1.758379

  a   n       homo-1         homo         lumo       lumo+1

  N   1    34.078779     7.127117    22.293724    27.196463
  C   2    11.814295    30.305005    31.615599    16.673254
  C   3     6.066971    31.530415    10.353570     1.016726
  N   4    36.086830     0.676175     3.846852     1.628563
  C   5     2.620031    29.253075    27.286413    17.682310
  C   6     2.400803     0.211034     1.706213    33.720451
  C  11     4.190998     0.589524     2.258059     0.081123
  C  14     0.545239     0.066814     0.012524     0.025984
  C  18     0.076006     0.013197     0.002144     0.002333


              NET ATOMIC CHARGES AND DIPOLE CONTRIBUTIONS

  ATOM NO.   TYPE          CHARGE      No. of ELECS.   s-Pop       p-Pop       
    1          N          -0.119003        5.1190     1.46236     3.65665
    2          C          -0.203115        4.2031     1.11147     3.09164
    3          C          -0.100145        4.1001     1.10962     2.99052
    4          N          -0.299391        5.2994     1.73211     3.56728
    5          C          -0.024067        4.0241     1.12145     2.90261
    6          C          -0.119088        4.1191     1.09480     3.02429
    7          H           0.174934        0.8251     0.82507
    8          H           0.174808        0.8252     0.82519
    9          H           0.182091        0.8179     0.81791
   10          H           0.145098        0.8549     0.85490
   11          C          -0.291004        4.2910     1.09414     3.19687
   12          H           0.152470        0.8475     0.84753
   13          H           0.148668        0.8513     0.85133
   14          C          -0.217684        4.2177     1.08043     3.13726
   15          H           0.144674        0.8553     0.85533
   16          H           0.131986        0.8680     0.86801
   17          H           0.140424        0.8596     0.85958
   18          C          -0.463885        4.4639     1.08225     3.38163
   19          H           0.148088        0.8519     0.85191
   20          H           0.150400        0.8496     0.84960
   21          H           0.143741        0.8563     0.85626
 DIPOLE           X         Y         Z       TOTAL
 POINT-CHG.     3.418     1.940     0.934     4.040
 HYBRID         0.628     0.765     0.330     1.044
 SUM            4.047     2.706     1.263     5.029


          ATOMIC ORBITAL ELECTRON POPULATIONS

     Atom    s        px        py        pz   
    1  N   1.46236   1.13322   1.09722   1.42620
    2  C   1.11147   0.95015   1.03733   1.10416
    3  C   1.10962   1.04333   0.89008   1.05712
    4  N   1.73211   1.12859   1.25134   1.18735
    5  C   1.12145   0.96838   0.88259   1.05164
    6  C   1.09480   0.87450   1.11643   1.03336
    7  H   0.82507
    8  H   0.82519
    9  H   0.81791
   10  H   0.85490
   11  C   1.09414   1.07033   1.06280   1.06373
   12  H   0.84753
   13  H   0.85133
   14  C   1.08043   1.07617   1.01168   1.04941
   15  H   0.85533
   16  H   0.86801
   17  H   0.85958
   18  C   1.08225   1.11960   1.14081   1.12122
   19  H   0.85191
   20  H   0.84960
   21  H   0.85626

          BONDING CONTRIBUTION OF EACH M.O.

  1.6109  1.6993  1.8008  1.8199  1.8709  1.9339  1.9542  1.7769  1.9455  1.9279
  1.8523  1.8826  1.9988  1.7768  1.9892  2.0070  1.9551  1.9668  1.9445  1.9825
  1.9915  1.9506  0.9284  1.4666  1.7509 -2.3763 -2.0023 -2.2532 -1.9908 -1.8969
 -1.9600 -1.9016 -1.9961 -1.9739 -1.9668 -1.9964 -1.9613 -1.9939 -1.9641 -1.9659
 -1.9546 -1.9763 -1.9192 -1.9680 -1.9140 -1.9621 -1.9605 -1.9295





            (VALENCIES)   BOND ORDERS

     1  N     (3.529)     5  C 1.209     2  C 1.206     6  C 0.923     4  N 0.094     3  C 0.074
 
     2  C     (3.908)     3  C 1.542     1  N 1.206     7  H 0.953     5  C 0.131     4  N 0.035     6  C 0.016
 
     3  C     (3.947)     2  C 1.542     4  N 1.319     8  H 0.951     1  N 0.074     5  C 0.039     6  C 0.011
 
     4  N     (3.015)     5  C 1.538     3  C 1.319     1  N 0.094     2  C 0.035     6  C 0.019
 
     5  C     (3.911)     4  N 1.538     1  N 1.209     9  H 0.945     2  C 0.131     3  C 0.039     6  C 0.016
 
     6  C     (3.911)    11  C 0.990    10  H 0.963    12  H 0.960     1  N 0.923     4  N 0.019     5  C 0.016
                          2  C 0.016     3  C 0.011
 
     7  H     (0.969)     2  C 0.953
 
     8  H     (0.969)     3  C 0.951
 
     9  H     (0.967)     5  C 0.945
 
    10  H     (0.979)     6  C 0.963
 
    11  C     (3.956)    14  C 1.002     6  C 0.990    13  H 0.966    15  H 0.965
 
    12  H     (0.977)     6  C 0.960
 
    13  H     (0.978)    11  C 0.966
 
    14  C     (3.960)    18  C 1.008    11  C 1.002    16  H 0.971    17  H 0.969
 
    15  H     (0.979)    11  C 0.965
 
    16  H     (0.983)    14  C 0.971
 
    17  H     (0.980)    14  C 0.969
 
    18  C     (3.932)    14  C 1.008    19  H 0.972    21  H 0.972    20  H 0.970
 
    19  H     (0.978)    18  C 0.972
 
    20  H     (0.977)    18  C 0.970
 
    21  H     (0.979)    18  C 0.972
 




 SELF-Q:    SELF OR INACTIVE CHARGE
 ACTIV-Q:   CHARGE WHICH IS USED TO FORM BONDS
 TOTAL-Q:   SELF-Q + ACTIV-Q
 FREE-VA:   TOTAL-Q - VALENCE
 STAT.PROM: TOTAL-Q - CORE CHARGE
 MULL.PROM: -CHARGE (SEE ABOVE)

       SELF-Q    ACTIV-Q   TOTAL-Q   VALENCE   FREE-VA STAT.PROM MULL.PROM


   1   1.59044   3.52856   5.11900   3.52856   0.00000   0.11900   0.11900

   2   0.29523   3.90788   4.20311   3.90788   0.00000   0.20311   0.20311

   3   0.15279   3.94736   4.10014   3.94736  -0.00000   0.10014   0.10014

   4   2.28439   3.01500   5.29939   3.01500   0.00000   0.29939   0.29939

   5   0.11319   3.91088   4.02407   3.91088  -0.00000   0.02407   0.02407

   6   0.20799   3.91110   4.11909   3.91110   0.00000   0.11909   0.11909

   7  -0.14433   0.96940   0.82507   0.96940   0.00000  -0.17493  -0.17493

   8  -0.14425   0.96944   0.82519   0.96944   0.00000  -0.17481  -0.17481

   9  -0.14893   0.96684   0.81791   0.96684  -0.00000  -0.18209  -0.18209

  10  -0.12404   0.97895   0.85490   0.97895   0.00000  -0.14510  -0.14510

  11   0.33510   3.95590   4.29100   3.95590   0.00000   0.29100   0.29100

  12  -0.12922   0.97675   0.84753   0.97675  -0.00000  -0.15247  -0.15247

  13  -0.12657   0.97790   0.85133   0.97790   0.00000  -0.14867  -0.14867

  14   0.25808   3.95961   4.21768   3.95961   0.00000   0.21768   0.21768

  15  -0.12374   0.97907   0.85533   0.97907   0.00000  -0.14467  -0.14467

  16  -0.11457   0.98258   0.86801   0.98258   0.00000  -0.13199  -0.13199

  17  -0.12070   0.98028   0.85958   0.98028   0.00000  -0.14042  -0.14042

  18   0.53237   3.93151   4.46388   3.93151   0.00000   0.46388   0.46388

  19  -0.12616   0.97807   0.85191   0.97807   0.00000  -0.14809  -0.14809

  20  -0.12778   0.97738   0.84960   0.97738   0.00000  -0.15040  -0.15040

  21  -0.12308   0.97934   0.85626   0.97934   0.00000  -0.14374  -0.14374

 CLOSED SHELL





          TOTAL ENERGY PARTITIONING

          ALL ENERGIES ARE IN ELECTRON VOLTS

            ONE-CENTER TERMS 
          E-E:  ELECTRON-ELECTRON REPULSION
          E-N:  ELECTRON-NUCLEAR ATTRACTION


   ATOM      E-E       E-N    (E-E + E-N)
   N   1   109.1695 -266.9432 -157.7736
   C   2    80.1198 -180.2585 -100.1387
   C   3    76.4312 -176.1254  -99.6942
   N   4   115.8565 -278.0721 -162.2157
   C   5    73.7048 -173.2190  -99.5142
   C   6    76.9690 -176.7167  -99.7477
   H   7     2.4589   -9.2795   -6.8206
   H   8     2.4597   -9.2809   -6.8212
   H   9     2.4165   -9.1990   -6.7825
   H  10     2.6400   -9.6151   -6.9751
   C  11    83.4110 -183.5753 -100.1643
   H  12     2.5947   -9.5321   -6.9375
   H  13     2.6180   -9.5749   -6.9569
   C  14    80.5995 -180.4941  -99.8947
   H  15     2.6426   -9.6198   -6.9772
   H  16     2.7216   -9.7625   -7.0409
   H  17     2.6689   -9.6676   -6.9987
   C  18    89.9566 -190.3473 -100.3906
   H  19     2.6215   -9.5814   -6.9599
   H  20     2.6073   -9.5554   -6.9481
   H  21     2.6484   -9.6303   -6.9819

              TWO-CENTER TERMS
           
          J:   RESONANCE ENERGY          E-E: ELECTRON-ELECTRON REPULSION
          K:   EXCHANGE ENERGY           E-N: ELECTRON-NUCLEAR ATTRACTION
                                         N-N: NUCLEAR-NUCLEAR REPULSION
          C:   COULOMBIC INTERACTION = E-E + E-N + N-N
          EE:  TOTAL OF ELECTRONIC AND NUCLEAR ENERGIES


     ATOM          J        K       E-E       E-N      N-N      C        EE
     PAIR
 
  C    2  N    1  -16.6896  -6.4059 166.3424 -327.0627 167.2813  6.5610 -16.5346
 
  C    3  N    1    0.3075  -0.2088 119.4457 -234.5258 115.5986  0.5185   0.6172
  C    3  C    2  -16.6854  -7.7590 136.3442 -267.3313 137.2328  6.2458 -18.1987
 
  N    4  N    1    0.3867  -0.2616 149.9616 -291.1812 141.8070  0.5874   0.7125
  N    4  C    2    0.2100  -0.0937 122.6585 -235.4056 113.3570  0.6099   0.7261
  N    4  C    3  -16.9302  -6.8135 167.2830 -328.5421 167.9985  6.7394 -17.0043
 
  C    5  N    1  -16.4365  -6.3406 159.6561 -320.1414 166.8462  6.3609 -16.4162
  C    5  C    2    0.5118  -0.3691  95.2803 -187.2684  92.4321  0.4439   0.5866
  C    5  C    3    0.1723  -0.1088  95.2785 -189.2437  94.5084  0.5432   0.6067
  C    5  N    4  -18.9991  -7.8668 166.9693 -331.2661 171.7919  7.4951 -19.3709
 
  C    6  N    1  -13.5072  -5.0021 159.1931 -315.0501 161.1581  5.3012 -13.2081
  C    6  C    2    0.2315  -0.0481  88.3241 -171.1548  83.0662  0.2355   0.4189
  C    6  C    3   -0.0206  -0.0248  62.9527 -123.1704  60.2494  0.0317  -0.0137
  C    6  N    4   -0.0174  -0.0384  80.0995 -154.7130  74.7034  0.0899   0.0342
  C    6  C    5    0.2230  -0.0478  84.3248 -166.8085  82.6332  0.1494   0.3246

   ATOM          J        K       E-E       E-N      N-N      C        EE
   PAIR
  H    7  N    1    0.0690  -0.0045  24.8671  -54.5105  29.6708  0.0274   0.0919
  H    7  C    2  -12.1042  -5.4020  33.0219  -71.8910  43.9443  5.0752 -12.4311
  H    7  C    3    0.0645  -0.0040  19.6305  -43.0027  23.3767  0.0045   0.0650
  H    7  N    4   -0.0139  -0.0110  17.7241  -38.4205  20.5294 -0.1670  -0.1919
  H    7  C    5   -0.0245  -0.0198  13.7748  -30.4801  16.7076  0.0023  -0.0421
  H    7  C    6    0.0001  -0.0001  15.9464  -34.8808  18.8541 -0.0803  -0.0803

   ATOM          J        K       E-E       E-N      N-N      C        EE
   PAIR
  H    8  N    1   -0.0144  -0.0121  17.5366  -38.4122  20.7957 -0.0800  -0.1065
  H    8  C    2    0.0882  -0.0082  20.2760  -43.8717  23.4880 -0.1077  -0.0278
  H    8  C    3  -12.0104  -5.3786  32.1873  -70.8037  43.7872  5.1708 -12.2182
  H    8  N    4    0.0494  -0.0028  25.9317  -56.0413  29.9793 -0.1303  -0.0838
  H    8  C    5   -0.0274  -0.0205  14.0572  -31.0774  17.0172 -0.0029  -0.0508
  H    8  C    6    0.0005  -0.0015  10.1473  -22.1963  11.9965 -0.0525  -0.0536
  H    8  H    7   -0.0058  -0.0003   3.3370   -8.0884   4.9030  0.1516   0.1455

   ATOM          J        K       E-E       E-N      N-N      C        EE
   PAIR
  H    9  N    1    0.1138  -0.0108  24.5803  -54.0972  29.5230  0.0062   0.1092
  H    9  C    2   -0.0235  -0.0182  14.2254  -31.0298  16.6737 -0.1307  -0.1725
  H    9  C    3   -0.0264  -0.0192  14.0770  -31.0210  16.8848 -0.0592  -0.1048
  H    9  N    4    0.0749  -0.0054  25.5515  -55.5327  29.8420 -0.1391  -0.0695
  H    9  C    5  -12.0229  -5.3451  31.3360  -69.7973  43.7187  5.2575 -12.1105
  H    9  C    6   -0.0041  -0.0003  15.6595  -34.4163  18.6727 -0.0841  -0.0886
  H    9  H    7    0.0002  -0.0001   2.2109   -5.3827   3.2762  0.1044   0.1045
  H    9  H    8    0.0001  -0.0000   2.2371   -5.4461   3.3145  0.1055   0.1056

   ATOM          J        K       E-E       E-N      N-N      C        EE
   PAIR
  H   10  N    1    0.0379  -0.0020  26.4896  -56.8899  30.4775  0.0771   0.1131
  H   10  C    2    0.0145  -0.0027  17.4952  -37.1800  19.5589 -0.1260  -0.1142
  H   10  C    3   -0.0002  -0.0008  12.0575  -25.9037  13.8025 -0.0437  -0.0448
  H   10  N    4    0.0003  -0.0011  14.4273  -30.6330  16.0919 -0.1138  -0.1146
  H   10  C    5   -0.0164  -0.0155  13.8853  -30.1081  16.2197 -0.0032  -0.0351
  H   10  C    6  -11.1515  -5.3294  32.8400  -70.7408  42.5532  4.6524 -11.8285
  H   10  H    7   -0.0063  -0.0003   3.5252   -8.3962   5.0003  0.1293   0.1226
  H   10  H    8    0.0000  -0.0000   2.0074   -4.7807   2.8455  0.0722   0.0722
  H   10  H    9    0.0001  -0.0000   2.5350   -6.0647   3.6255  0.0958   0.0959

   ATOM          J        K       E-E       E-N      N-N      C        EE
   PAIR
  C   11  N    1    0.1168  -0.0173 114.9791 -219.9883 105.3561  0.3469   0.4464
  C   11  C    2    0.0015  -0.0116  73.5856 -138.9837  65.6226  0.2244   0.2143
  C   11  C    3   -0.0001  -0.0035  55.4887 -106.0713  50.6624  0.0799   0.0762
  C   11  N    4    0.0000  -0.0035  70.2934 -132.5528  62.4829  0.2235   0.2201
  C   11  C    5   -0.0011  -0.0147  68.7814 -132.8074  64.0438  0.0177   0.0018
  C   11  C    6  -11.4835  -5.0889 132.5065 -255.4102 127.1577  4.2539 -12.3184
  C   11  H    7   -0.0001  -0.0000  13.9557  -29.9310  15.7761 -0.1992  -0.1992
  C   11  H    8   -0.0000  -0.0000   9.3151  -19.9767  10.5287 -0.1328  -0.1328
  C   11  H    9    0.0001  -0.0000  13.2276  -28.5305  15.1093 -0.1936  -0.1935
  C   11  H   10    0.0429  -0.0014  21.7498  -45.7952  23.9303 -0.1150  -0.0736

   ATOM          J        K       E-E       E-N      N-N      C        EE
   PAIR
  H   12  N    1    0.0354  -0.0021  26.2661  -56.6655  30.4689  0.0695   0.1027
  H   12  C    2   -0.0179  -0.0163  14.2940  -30.5558  16.1533 -0.1085  -0.1428
  H   12  C    3    0.0002  -0.0005  11.2202  -24.2269  12.9651 -0.0417  -0.0420
  H   12  N    4   -0.0002  -0.0004  15.3708  -32.7772  17.2751 -0.1314  -0.1320
  H   12  C    5    0.0135  -0.0021  16.7305  -36.3969  19.6600 -0.0063   0.0050
  H   12  C    6  -11.1211  -5.3116  32.5595  -70.4563  42.5355  4.6387 -11.7940
  H   12  H    7   -0.0001  -0.0000   2.5240   -6.0371   3.6094  0.0963   0.0962
  H   12  H    8   -0.0000  -0.0001   1.8411   -4.4034   2.6325  0.0702   0.0700
  H   12  H    9   -0.0081  -0.0005   3.5001   -8.4092   5.0521  0.1430   0.1344
  H   12  H   10   -0.0371  -0.0007   5.0985  -11.9795   7.1182  0.2372   0.1993
  H   12  C   11    0.0330  -0.0011  21.5107  -45.5262  23.8895 -0.1259  -0.0940

   ATOM          J        K       E-E       E-N      N-N      C        EE
   PAIR
  H   13  N    1    0.0149  -0.0021  21.6941  -46.6834  24.9136 -0.0757  -0.0629
  H   13  C    2   -0.0075  -0.0008  15.9347  -33.9069  17.8429 -0.1293  -0.1376
  H   13  C    3    0.0001  -0.0000  11.7402  -25.2721  13.4869 -0.0451  -0.0450
  H   13  N    4    0.0001  -0.0001  13.9955  -29.7690  15.6572 -0.1163  -0.1163
  H   13  C    5   -0.0011  -0.0002  12.7696  -27.7355  14.9599 -0.0059  -0.0072
  H   13  C    6    0.0085  -0.0022  20.8801  -44.8501  23.9985  0.0286   0.0349
  H   13  H    7   -0.0020  -0.0001   3.1797   -7.5889   4.5273  0.1181   0.1160
  H   13  H    8   -0.0000  -0.0000   1.9989   -4.7703   2.8454  0.0739   0.0739
  H   13  H    9    0.0000  -0.0000   2.3314   -5.5890   3.3483  0.0906   0.0907
  H   13  H   10   -0.0003  -0.0000   3.7679   -8.8334   5.1813  0.1159   0.1155
  H   13  C   11  -11.1632  -5.3507  34.0521  -72.2707  42.7128  4.4942 -12.0198
  H   13  H   12   -0.0161  -0.0082   3.1890   -7.5085   4.4199  0.1004   0.0761

   ATOM          J        K       E-E       E-N      N-N      C        EE
   PAIR
  C   14  N    1    0.0072  -0.0010  92.6118 -178.3581  85.8641  0.1178   0.1240
  C   14  C    2   -0.0003  -0.0001  58.8815 -112.1157  53.3686  0.1344   0.1340
  C   14  C    3   -0.0000  -0.0001  49.4324  -95.2334  45.8561  0.0551   0.0550
  C   14  N    4    0.0000  -0.0003  67.8356 -128.7371  61.0787  0.1771   0.1769
  C   14  C    5    0.0009  -0.0007  66.7153 -129.5195  62.8282  0.0241   0.0243
  C   14  C    6    0.0696  -0.0063  89.4595 -172.0820  82.8806  0.2581   0.3214
  C   14  H    7    0.0000  -0.0000  10.5927  -22.8893  12.1818 -0.1149  -0.1149
  C   14  H    8   -0.0000  -0.0000   8.4074  -18.1582   9.6582 -0.0927  -0.0927
  C   14  H    9    0.0003  -0.0000  14.0172  -30.4225  16.2422 -0.1630  -0.1628
  C   14  H   10   -0.0123  -0.0102  14.1507  -30.0018  15.7321 -0.1190  -0.1415
  C   14  C   11  -11.5626  -5.1531 135.6779 -258.6447 127.4331  4.4663 -12.2494
  C   14  H   12    0.0136  -0.0016  17.4750  -37.2343  19.6114 -0.1479  -0.1359
  C   14  H   13    0.0038  -0.0005  21.4320  -45.5686  24.0861 -0.0505  -0.0472

   ATOM          J        K       E-E       E-N      N-N      C        EE
   PAIR
  H   15  N    1   -0.0115  -0.0113  17.5524  -37.6725  20.0518 -0.0683  -0.0911
  H   15  C    2    0.0004  -0.0009  11.8820  -25.2277  13.2533 -0.0924  -0.0929
  H   15  C    3   -0.0000  -0.0002   9.1481  -19.6423  10.4602 -0.0340  -0.0343
  H   15  N    4   -0.0000  -0.0004  11.5138  -24.4097  12.8002 -0.0956  -0.0960
  H   15  C    5    0.0003  -0.0010  10.8581  -23.5073  12.6416 -0.0077  -0.0084
  H   15  C    6   -0.0018  -0.0048  21.1401  -45.2342  24.1218  0.0277   0.0212
  H   15  H    7   -0.0000  -0.0000   2.3595   -5.6183   3.3434  0.0846   0.0846
  H   15  H    8    0.0000  -0.0000   1.5825   -3.7680   2.2422  0.0567   0.0567
  H   15  H    9   -0.0000  -0.0000   2.1413   -5.1215   3.0608  0.0806   0.0806
  H   15  H   10    0.0064  -0.0001   4.0471   -9.4657   5.5451  0.1265   0.1328
  H   15  C   11  -11.1717  -5.3464  34.2161  -72.4433  42.7449  4.5177 -12.0003
  H   15  H   12   -0.0032  -0.0001   3.7473   -8.8025   5.1733  0.1181   0.1149
  H   15  H   13   -0.0690  -0.0023   5.1654  -12.1066   7.1798  0.2387   0.1674
  H   15  C   14    0.0053  -0.0004  21.4542  -45.5214  24.0225 -0.0447  -0.0399

   ATOM          J        K       E-E       E-N      N-N      C        EE
   PAIR
  H   16  N    1   -0.0001  -0.0000  15.2888  -32.5458  17.2027 -0.0543  -0.0544
  H   16  C    2    0.0001  -0.0001  10.5523  -22.2250  11.5991 -0.0736  -0.0736
  H   16  C    3   -0.0000  -0.0000   9.0437  -19.2623  10.1882 -0.0304  -0.0305
  H   16  N    4   -0.0000  -0.0000  12.1108  -25.4432  13.2381 -0.0943  -0.0943
  H   16  C    5    0.0001  -0.0001  11.1139  -23.8470  12.7224 -0.0108  -0.0107
  H   16  C    6   -0.0133  -0.0118  14.0910  -29.9242  15.7722 -0.0609  -0.0859
  H   16  H    7   -0.0000  -0.0000   1.9562   -4.6245   2.7314  0.0631   0.0631
  H   16  H    8    0.0000  -0.0000   1.5844   -3.7454   2.2120  0.0510   0.0510
  H   16  H    9   -0.0000  -0.0000   2.2882   -5.4338   3.2230  0.0775   0.0775
  H   16  H   10    0.0003  -0.0002   2.4035   -5.5804   3.2389  0.0620   0.0621
  H   16  C   11    0.0136  -0.0013  22.2915  -46.5064  24.1251 -0.0899  -0.0775
  H   16  H   12   -0.0004  -0.0001   2.6901   -6.2731   3.6566  0.0736   0.0731
  H   16  H   13    0.0090  -0.0003   4.0978   -9.5343   5.5559  0.1194   0.1282
  H   16  C   14  -11.1834  -5.3782  34.1369  -72.2337  42.7160  4.6192 -11.9424
  H   16  H   15    0.0007  -0.0000   3.8796   -9.0052   5.2303  0.1046   0.1053

   ATOM          J        K       E-E       E-N      N-N      C        EE
   PAIR
  H   17  N    1   -0.0074  -0.0004  21.0003  -44.9403  23.8638 -0.0761  -0.0839
  H   17  C    2   -0.0003  -0.0000  13.1608  -27.8951  14.6401 -0.0942  -0.0945
  H   17  C    3    0.0000  -0.0000  11.6049  -24.8616  13.2169 -0.0399  -0.0398
  H   17  N    4   -0.0000  -0.0000  16.7812  -35.4646  18.5461 -0.1373  -0.1374
  H   17  C    5   -0.0177  -0.0016  16.8299  -36.2775  19.4317 -0.0159  -0.0352
  H   17  C    6    0.0135  -0.0017  17.1989  -36.7536  19.4864 -0.0682  -0.0564
  H   17  H    7   -0.0000  -0.0000   2.2478   -5.3394   3.1694  0.0779   0.0779
  H   17  H    8   -0.0000  -0.0000   1.9396   -4.6069   2.7344  0.0671   0.0671
  H   17  H    9   -0.0089  -0.0005   3.5742   -8.5280   5.0870  0.1332   0.1238
  H   17  H   10   -0.0004  -0.0001   2.6705   -6.2305   3.6340  0.0740   0.0736
  H   17  C   11    0.0204  -0.0008  21.9535  -46.0666  24.0061 -0.1069  -0.0874
  H   17  H   12   -0.0013  -0.0000   3.3533   -7.8577   4.6034  0.0991   0.0977
  H   17  H   13   -0.0001  -0.0000   3.8222   -8.9364   5.2280  0.1138   0.1138
  H   17  C   14  -11.1764  -5.3678  33.8239  -71.9327  42.7098  4.6011 -11.9431
  H   17  H   15   -0.0169  -0.0088   3.2573   -7.5976   4.4306  0.0902   0.0645
  H   17  H   16   -0.0606  -0.0018   5.3034  -12.2796   7.1952  0.2190   0.1567

   ATOM          J        K       E-E       E-N      N-N      C        EE
   PAIR
  C   18  N    1   -0.0001  -0.0000  78.7200 -147.5113  68.9786  0.1873   0.1872
  C   18  C    2    0.0000  -0.0000  49.9967  -92.6080  42.8414  0.2301   0.2300
  C   18  C    3    0.0000  -0.0000  43.2629  -81.1255  37.9590  0.0965   0.0965
  C   18  N    4   -0.0000  -0.0000  61.1573 -112.8450  52.0136  0.3260   0.3259
  C   18  C    5    0.0001  -0.0001  60.0123 -113.3564  53.3931  0.0489   0.0489
  C   18  C    6    0.0141  -0.0038  78.7330 -146.9961  68.5168  0.2537   0.2640
  C   18  H    7    0.0000  -0.0000   9.0551  -19.0962   9.8431 -0.1980  -0.1980
  C   18  H    8    0.0000  -0.0000   7.4877  -15.7881   8.1365 -0.1639  -0.1639
  C   18  H    9   -0.0002  -0.0000  13.6686  -28.9668  14.9834 -0.3147  -0.3149
  C   18  H   10   -0.0002  -0.0001  13.0738  -27.0164  13.7134 -0.2292  -0.2294
  C   18  C   11    0.0871  -0.0077  99.0347 -181.5346  83.3063  0.8064   0.8858
  C   18  H   12   -0.0114  -0.0007  18.2105  -37.8166  19.2725 -0.3335  -0.3457
  C   18  H   13   -0.0130  -0.0106  15.0073  -31.1013  15.8261 -0.2679  -0.2915
  C   18  C   14  -11.6941  -5.1984 141.2990 -264.4786 127.9521  4.7725 -12.1200
  C   18  H   15    0.0117  -0.0014  18.7207  -38.6887  19.6503 -0.3177  -0.3074
  C   18  H   16    0.0223  -0.0004  23.1472  -47.4906  24.1229 -0.2204  -0.1985
  C   18  H   17    0.0275  -0.0005  22.8641  -47.1690  24.0593 -0.2456  -0.2186

   ATOM          J        K       E-E       E-N      N-N      C        EE
   PAIR
  H   19  N    1    0.0000  -0.0000  13.0126  -27.9842  14.9189 -0.0527  -0.0527
  H   19  C    2   -0.0000  -0.0000   8.5783  -18.2586   9.6127 -0.0676  -0.0676
  H   19  C    3   -0.0000  -0.0000   7.3289  -15.7707   8.4138 -0.0280  -0.0280
  H   19  N    4    0.0000  -0.0000  10.0465  -21.3199  11.1831 -0.0903  -0.0903
  H   19  C    5   -0.0000  -0.0000   9.5320  -20.6528  11.1090 -0.0118  -0.0118
  H   19  C    6    0.0000  -0.0000  13.5102  -28.9510  15.3681 -0.0726  -0.0726
  H   19  H    7    0.0000  -0.0000   1.6026   -3.8235   2.2800  0.0591   0.0591
  H   19  H    8   -0.0000  -0.0000   1.2879   -3.0725   1.8320  0.0474   0.0474
  H   19  H    9    0.0000  -0.0000   2.0991   -5.0304   3.0126  0.0812   0.0812
  H   19  H   10    0.0000  -0.0000   2.3942   -5.6108   3.2873  0.0706   0.0707
  H   19  C   11    0.0088  -0.0007  17.4977  -36.8586  19.1603 -0.2006  -0.1925
  H   19  H   12   -0.0005  -0.0000   3.0731   -7.2333   4.2564  0.0962   0.0957
  H   19  H   13   -0.0003  -0.0000   2.6832   -6.3015   3.6997  0.0815   0.0811
  H   19  C   14    0.0057  -0.0004  21.3039  -45.2994  23.9423 -0.0533  -0.0480
  H   19  H   15   -0.0119  -0.0007   3.8200   -8.9503   5.2476  0.1174   0.1048
  H   19  H   16    0.0065  -0.0002   3.9038   -9.0798   5.2848  0.1088   0.1151
  H   19  H   17   -0.0172  -0.0091   3.2420   -7.5771   4.4274  0.0923   0.0660
  H   19  C   18  -11.3142  -5.4071  35.5647  -74.2499  43.1308  4.4456 -12.2757

   ATOM          J        K       E-E       E-N      N-N      C        EE
   PAIR
  H   20  N    1    0.0000  -0.0000  12.7372  -27.4325  14.6428 -0.0525  -0.0525
  H   20  C    2   -0.0000  -0.0000   8.3769  -17.8595   9.4158 -0.0668  -0.0668
  H   20  C    3    0.0000  -0.0000   7.5347  -16.2388   8.6749 -0.0291  -0.0291
  H   20  N    4    0.0000  -0.0000  10.8550  -23.0555  12.0986 -0.1020  -0.1020
  H   20  C    5   -0.0000  -0.0000  10.2748  -22.2790  11.9884 -0.0158  -0.0159
  H   20  C    6   -0.0003  -0.0001  11.7499  -25.2301  13.4182 -0.0619  -0.0623
  H   20  H    7   -0.0000  -0.0000   1.5107   -3.6090   2.1551  0.0567   0.0567
  H   20  H    8   -0.0000  -0.0000   1.3246   -3.1644   1.8894  0.0497   0.0497
  H   20  H    9   -0.0000  -0.0000   2.3889   -5.7326   3.4378  0.0941   0.0941
  H   20  H   10   -0.0000  -0.0000   2.0073   -4.7107   2.7637  0.0603   0.0603
  H   20  C   11   -0.0134  -0.0119  14.3479  -30.2779  15.7605 -0.1695  -0.1948
  H   20  H   12    0.0003  -0.0000   2.6686   -6.2896   3.7060  0.0850   0.0852
  H   20  H   13    0.0003  -0.0002   2.3503   -5.5272   3.2495  0.0727   0.0727
  H   20  C   14   -0.0065  -0.0006  21.3328  -45.4116  24.0235 -0.0553  -0.0624
  H   20  H   15   -0.0004  -0.0001   2.6916   -6.3149   3.7039  0.0806   0.0801
  H   20  H   16    0.0057  -0.0001   3.9546   -9.2107   5.3694  0.1134   0.1190
  H   20  H   17    0.0044  -0.0001   3.8970   -9.1206   5.3427  0.1192   0.1235
  H   20  C   18  -11.2937  -5.3947  35.4530  -74.1292  43.1013  4.4252 -12.2632
  H   20  H   19   -0.0726  -0.0025   5.1406  -12.0849   7.1893  0.2450   0.1699

   ATOM          J        K       E-E       E-N      N-N      C        EE
   PAIR
  H   21  N    1   -0.0000  -0.0000  16.3190  -34.9977  18.6147 -0.0640  -0.0640
  H   21  C    2    0.0000  -0.0000   9.9567  -21.1467  11.1164 -0.0736  -0.0736
  H   21  C    3   -0.0000  -0.0000   8.6431  -18.5530   9.8790 -0.0309  -0.0309
  H   21  N    4   -0.0000  -0.0000  12.5109  -26.4791  13.8603 -0.1079  -0.1079
  H   21  C    5   -0.0001  -0.0000  12.7578  -27.5460  14.7696 -0.0187  -0.0188
  H   21  C    6   -0.0032  -0.0002  16.4847  -35.2220  18.6533 -0.0840  -0.0874
  H   21  H    7   -0.0000  -0.0000   1.7735   -4.2208   2.5104  0.0631   0.0631
  H   21  H    8    0.0000  -0.0000   1.4801   -3.5223   2.0948  0.0526   0.0526
  H   21  H    9   -0.0014  -0.0001   3.0545   -7.3019   4.3616  0.1143   0.1128
  H   21  H   10    0.0001  -0.0000   2.6991   -6.3093   3.6872  0.0769   0.0770
  H   21  C   11    0.0086  -0.0007  17.4407  -36.6582  19.0279 -0.1896  -0.1816
  H   21  H   12   -0.0516  -0.0043   4.3470  -10.2058   6.0139  0.1551   0.0993
  H   21  H   13   -0.0003  -0.0000   2.6158   -6.1274   3.5883  0.0767   0.0764
  H   21  C   14    0.0070  -0.0004  21.4012  -45.3755  23.9248 -0.0496  -0.0430
  H   21  H   15   -0.0003  -0.0000   3.2390   -7.5697   4.4228  0.0922   0.0919
  H   21  H   16   -0.0175  -0.0093   3.2944   -7.6427   4.4327  0.0843   0.0575
  H   21  H   17    0.0070  -0.0002   3.8804   -9.0461   5.2776  0.1119   0.1186
  H   21  C   18  -11.3170  -5.4074  35.7441  -74.4204  43.1452  4.4688 -12.2556
  H   21  H   19   -0.0634  -0.0019   5.1773  -12.1238   7.1840  0.2375   0.1722
  H   21  H   20   -0.0716  -0.0025   5.1694  -12.1216   7.1930  0.2407   0.1667
 

                    Total contribution from hydrogen bonds:         0.000 disp.:    0.000 Tot:     0.000 kcal/mol




***  SUMMARY OF ENERGY PARTITION  ***
 ---------------------------------------
     ONE-CENTER TERMS

 ELECTRON-NUCLEAR  (ONE-ELECTRON)        -1920.0502 EV
 ELECTRON-ELECTRON (TWO-ELECTRON)          817.3160 EV

 TOTAL OF ONE-CENTER TERMS               -1102.7343 EV
 ---------------------------------------
     TWO-CENTER TERMS

 RESONANCE ENERGY                         -268.6875 EV
 EXCHANGE ENERGY                          -121.6433 EV

 EXCHANGE + RESONANCE ENERGY:             -390.3308 EV

 ELECTRON-ELECTRON REPULSION              5620.0878 EV
 ELECTRON-NUCLEAR ATTRACTION            -11329.3612 EV
 NUCLEAR-NUCLEAR REPULSION                5822.9983 EV

 TOTAL ELECTROSTATIC INTERACTION           113.7249 EV

 GRAND TOTAL OF TWO-CENTER TERMS          -276.6059 EV
 ---------------------------------------
 ETOT (EONE + ETWO)                      -1379.3402 EV


 ******************** TDHF POLARIZABILITIES ********************



          MOLECULAR WEIGHT =  124.19



          ROTATIONAL CONSTANTS IN CM(-1)

          A =    0.11771932   B =    0.03151151   C =    0.02808661



           PRINCIPAL MOMENTS OF INERTIA IN UNITS OF 10**(-40)*GRAM-CM**2

          A =      237.7923   B =      888.3343   C =      996.6581


 ROTATION MATRIX FOR ORIENTATION OF MOLECULE:

         0.999552    0.021704   -0.020599
        -0.023686    0.994562   -0.101420
         0.018286    0.101862    0.994630


          CARTESIAN COORDINATES 

    NO.       ATOM         X         Y         Z

     1         N       -0.6497    0.3386    0.4142
     2         C       -1.7186    1.0312   -0.1730
     3         C       -2.6872    0.0670   -0.4667
     4         N       -2.2360   -1.1976   -0.0897
     5         C       -0.9986   -1.0248    0.4318
     6         C        0.6373    0.9261    0.8246
     7         H       -1.7251    2.0910   -0.3242
     8         H       -3.6566    0.2035   -0.9117
     9         H       -0.3628   -1.8015    0.8236
    10         H        0.4502    1.9294    1.2726
    11         C        1.6175    1.0529   -0.3534
    12         H        1.0823    0.2964    1.6303
    13         H        1.1110    1.5449   -1.2091
    14         C        2.1943   -0.2917   -0.8134
    15         H        2.4411    1.7337   -0.0591
    16         H        2.7068   -0.1491   -1.7868
    17         H        1.3699   -1.0053   -1.0185
    18         C        3.1703   -0.8980    0.1908
    19         H        4.0188   -0.2321    0.3853
    20         H        3.5792   -1.8455   -0.1811
    21         H        2.6898   -1.1084    1.1526


 ENERGY OF "REORIENTED" SYSTEM WITHOUT FIELD:       16.1947860425


  NFREQ=  3  IWFLB=  0  IBET=  1  IGAM=  1
  ATOL= 0.10000D-02  BTOL= 0.10000D-02    MAXITU=  500    MAXITA=  150


 *****************************************************************
 CALCULATION OF STATIC FIELD QUANTITIES
 *****************************************************************

 +++++ ALPHA AT       0.00000 EV.

                           COMPONENTS OF ALPHA

                     *X           *Y           *Z
           *=X:     111.2813       4.2520      13.4294
           *=Y:       4.2511     104.1736      -2.8736
           *=Z:      13.4292      -2.8745      81.5119

  ISOTROPIC AVERAGE ALPHA =      98.98894 A.U. =     14.66865 ANG.**3

 +++++ BETA (SECOND HARMONIC GENERATION) AT       0.00000 EV.

                              COMPONENTS OF BETA
            *XX         *XY         *YY         *XZ         *YZ         *ZZ
   *=X   -30.72432   -35.04142   -73.20707    -0.00135     0.11759   -11.19817
   *=Y   -34.99044   -73.23888   -38.91327     0.13901   -33.65815   -10.30605
   *=Z    -0.00936     0.15105   -33.65131   -11.20676   -10.30307   -14.83911


 AVERAGE BETAX(SHG) VALUE AT   0.00000 EV =        -69.0939 a.u. = -0.596931E-30 ESU
 AVERAGE BETAY(SHG) VALUE AT   0.00000 EV =        -50.5451 a.u. = -0.436680E-30 ESU
 AVERAGE BETAZ(SHG) VALUE AT   0.00000 EV =        -29.0994 a.u. = -0.251402E-30 ESU



 AVERAGE BETA (SHG) VALUE AT   0.00000 EV =         90.4187 a.u. =  0.781165E-30 ESU
   (1 a.u. = 8.639418X10-33 esu)



 +++++ ALPHA AT       0.00000 EV.

                           COMPONENTS OF ALPHA

                     *X           *Y           *Z
           *=X:     111.2812       4.2520      13.4294
           *=Y:       4.2512     104.1736      -2.8736
           *=Z:      13.4291      -2.8745      81.5119

  ISOTROPIC AVERAGE ALPHA =      98.98890 A.U. =     14.66864 ANG.**3


 GAMMA (THIRD HARMONIC GENERATION) AT    0.00000 EV.


 GAMMA(X,X,X,X) =          9607.34810
 GAMMA(Y,Y,Y,Y) =          2233.31042
 GAMMA(Z,Z,Z,Z) =           774.22908
 GAMMA(X,X,Y,Y) =          2416.49782
 GAMMA(X,X,Z,Z) =           970.83539
 GAMMA(Y,Y,X,X) =          2416.52551
 GAMMA(Y,Y,Z,Z) =           833.06157
 GAMMA(Z,Z,X,X) =           970.83499
 GAMMA(Z,Z,Y,Y) =           833.04533


 AVERAGE GAMMA VALUE AT    0.00000 =          4211.13764 a.u. =         2121.02478 ESU (X10-39)




 **********************************************************************
 CALCULATION FOR A FREQUENCY OF    0.25000 EV  =       0.00919 A.U. 
                  WAVELENGTH OF    4959.37 NM  =    2016.38525 CM(-1)
 **********************************************************************

 +++++ ALPHA AT       0.25000 EV.

                           COMPONENTS OF ALPHA

                     *X           *Y           *Z
           *=X:     111.3481       4.2636      13.4434
           *=Y:       4.2629     104.2340      -2.8764
           *=Z:      13.4431      -2.8774      81.5363

  ISOTROPIC AVERAGE ALPHA =      99.03945 A.U. =     14.67613 ANG.**3

 +++++ BETA (SECOND HARMONIC GENERATION) AT       0.25000 EV.

                              COMPONENTS OF BETA
            *XX         *XY         *YY         *XZ         *YZ         *ZZ
   *=X   -30.64507   -35.36236   -73.93259     0.12059     0.14224   -11.19657
   *=Y   -34.88525   -74.53153   -39.28285     0.33004   -34.19826   -10.15454
   *=Z     0.22939     0.31760   -33.96415   -11.31033   -10.31854   -14.96168


 AVERAGE BETAX(SHG) VALUE AT   0.25000 EV =        -69.7496 a.u. = -0.602596E-30 ESU
 AVERAGE BETAY(SHG) VALUE AT   0.25000 EV =        -50.8500 a.u. = -0.439315E-30 ESU
 AVERAGE BETAZ(SHG) VALUE AT   0.25000 EV =        -29.3550 a.u. = -0.253610E-30 ESU



 AVERAGE BETA (SHG) VALUE AT   0.25000 EV =         91.1727 a.u. =  0.787679E-30 ESU
[...]
 EFFECTIVE MASS      9.6326
 FORCE CONSTANT      1.3413

 VIBRATION         40   40A           ATOM PAIR      ENERGY CONTRIBUTION    RADIAL
 FREQUENCY          1327.63         C 11 -- H 13         +16.4% ( 49.1%)      0.4%
 TRANSITION DIPOLE   0.3684         C 11 -- H 15         +16.3% ( 48.8%)      0.7%
 TRAVEL (Ang.)       0.3400         C  6 -- H 10          +8.8% ( 35.9%)      2.4%
 REDUCED MASS        0.4395         C 14 -- H 16          +8.6% ( 35.5%)      1.7%
 EFFECTIVE MASS      3.9910
 FORCE CONSTANT      0.4564

 VIBRATION         41   41A           ATOM PAIR      ENERGY CONTRIBUTION    RADIAL
 FREQUENCY          1339.28         C 18 -- H 20         +26.5% ( 53.5%)      0.5%
 TRANSITION DIPOLE   0.7044         C 18 -- H 19         +22.3% ( 49.0%)      2.0%
 TRAVEL (Ang.)       0.3669         C 18 -- H 21         +21.6% ( 48.2%)      2.1%
 REDUCED MASS        0.3740         C 14 -- H 16          +8.9% ( 30.9%)      0.0%
 EFFECTIVE MASS      2.3594
 FORCE CONSTANT      0.3953

 VIBRATION         42   42A           ATOM PAIR      ENERGY CONTRIBUTION    RADIAL
 FREQUENCY          1376.82         N  1 -- C  5         +19.7% ( 70.7%)     99.7%
 TRANSITION DIPOLE   0.5711         N  1 -- C  2         +15.2% ( 62.1%)     71.0%
 TRAVEL (Ang.)       0.1285         N  4 -- C  5         +11.1% ( 53.0%)     68.7%
 REDUCED MASS        2.9683         N  1 -- C  6         +10.5% ( 51.6%)      4.4%
 EFFECTIVE MASS     10.9671
 FORCE CONSTANT      3.3152

 VIBRATION         43   43A           ATOM PAIR      ENERGY CONTRIBUTION    RADIAL
 FREQUENCY          1439.07         C  2 -- C  3         +19.3% ( 75.5%)     70.7%
 TRANSITION DIPOLE   0.7018         C  3 -- C  5         +12.2% ( 60.0%)     87.4%
 TRAVEL (Ang.)       0.1342         C  2 -- C  5         +10.9% ( 56.7%)     59.6%
 REDUCED MASS        2.6012         C  3 -- N  4         +10.7% ( 56.2%)     93.2%
 EFFECTIVE MASS     11.7052
 FORCE CONSTANT      3.1738

 VIBRATION         44   44A           ATOM PAIR      ENERGY CONTRIBUTION    RADIAL
 FREQUENCY          1495.85         N  1 -- C  2         +19.8% ( 73.4%)     72.9%
 TRANSITION DIPOLE   1.4414         N  1 -- C  6         +18.7% ( 71.4%)     99.5%
 TRAVEL (Ang.)       0.1000         N  1 -- C  5         +17.4% ( 68.8%)     65.1%
 REDUCED MASS        4.5102         N  1 -- C  3         +15.9% ( 65.9%)     81.8%
 EFFECTIVE MASS     12.5721
 FORCE CONSTANT      5.9459

 VIBRATION         45   45A           ATOM PAIR      ENERGY CONTRIBUTION    RADIAL
 FREQUENCY          1517.62         C  2 -- C  3         +15.5% ( 64.6%)     94.8%
 TRANSITION DIPOLE   0.8824         N  4 -- C  5         +12.6% ( 58.2%)     98.1%
 TRAVEL (Ang.)       0.1421         C  3 -- C  5          +9.9% ( 51.6%)     46.3%
 REDUCED MASS        2.2010         C  2 -- C  5          +9.6% ( 50.8%)      1.1%
 EFFECTIVE MASS     11.9654
 FORCE CONSTANT      2.9868

 VIBRATION         46   46A           ATOM PAIR      ENERGY CONTRIBUTION    RADIAL
 FREQUENCY          2647.18         C  6 -- H 12         +51.3% ( 74.0%)     98.4%
 TRANSITION DIPOLE   0.4812         C  6 -- H 10         +43.4% ( 68.1%)     97.7%
 TRAVEL (Ang.)       0.2328         C 11 -- H 13          +2.5% ( 16.3%)     99.1%
 REDUCED MASS        0.4700         C  6 -- C 11          +1.0% ( 10.2%)      0.2%
 EFFECTIVE MASS      1.4455
 FORCE CONSTANT      1.9406

 VIBRATION         47   47A           ATOM PAIR      ENERGY CONTRIBUTION    RADIAL
 FREQUENCY          2660.71         C 14 -- H 17         +41.8% ( 66.9%)     98.2%
 TRANSITION DIPOLE   0.2697         C 14 -- H 16         +34.1% ( 60.5%)     97.6%
 TRAVEL (Ang.)       0.2837         C 11 -- H 15          +9.4% ( 31.7%)     98.6%
 REDUCED MASS        0.3148         C 11 -- H 13          +4.6% ( 22.1%)     97.0%
 EFFECTIVE MASS      1.4278
 FORCE CONSTANT      1.3131

 VIBRATION         48   48A           ATOM PAIR      ENERGY CONTRIBUTION    RADIAL
 FREQUENCY          2669.20         C 11 -- H 13         +42.8% ( 67.5%)     98.1%
 TRANSITION DIPOLE   0.5117         C 11 -- H 15         +37.2% ( 62.9%)     97.6%
 TRAVEL (Ang.)       0.2708         C 14 -- H 16          +8.7% ( 30.4%)     98.6%
 REDUCED MASS        0.3445         C 14 -- H 17          +4.0% ( 20.7%)     96.5%
 EFFECTIVE MASS      1.4472
 FORCE CONSTANT      1.4463

 VIBRATION         49   49A           ATOM PAIR      ENERGY CONTRIBUTION    RADIAL
 FREQUENCY          2693.38         C 18 -- H 20         +61.6% ( 80.8%)     99.4%
 TRANSITION DIPOLE   0.5555         C 18 -- H 21         +25.5% ( 52.0%)     92.0%
 TRAVEL (Ang.)       0.2308         C 18 -- H 19          +9.7% ( 32.1%)     75.2%
 REDUCED MASS        0.4701         C 14 -- H 17          +1.7% ( 13.6%)     99.8%
 EFFECTIVE MASS      1.4513
 FORCE CONSTANT      2.0091

 VIBRATION         50   50A           ATOM PAIR      ENERGY CONTRIBUTION    RADIAL
 FREQUENCY          2699.16         C 18 -- H 19         +50.7% ( 73.2%)     98.6%
 TRANSITION DIPOLE   0.6394         C 18 -- H 21         +36.2% ( 61.8%)     96.2%
 TRAVEL (Ang.)       0.2475         C 14 -- H 16          +4.8% ( 22.5%)     97.8%
 REDUCED MASS        0.4078         C 14 -- H 17          +3.9% ( 20.3%)     97.1%
 EFFECTIVE MASS      1.4698
 FORCE CONSTANT      1.7506

 VIBRATION         51   51A           ATOM PAIR      ENERGY CONTRIBUTION    RADIAL
 FREQUENCY          2717.15         C  6 -- H 10         +50.9% ( 70.4%)     96.9%
 TRANSITION DIPOLE   0.5326         C  6 -- H 12         +45.4% ( 66.4%)     96.0%
 TRAVEL (Ang.)       0.2322         C 11 -- H 15          +1.6% ( 12.4%)     97.0%
 REDUCED MASS        0.4601         C  6 -- C 11          +0.5% (  6.9%)     35.1%
 EFFECTIVE MASS      1.2415
 FORCE CONSTANT      2.0014

 VIBRATION         52   52A           ATOM PAIR      ENERGY CONTRIBUTION    RADIAL
 FREQUENCY          2738.58         C 11 -- H 13         +33.7% ( 57.2%)     97.4%
 TRANSITION DIPOLE   0.4706         C 11 -- H 15         +26.9% ( 51.1%)     95.8%
 TRAVEL (Ang.)       0.3115         C 14 -- H 16         +23.1% ( 47.4%)     98.3%
 REDUCED MASS        0.2537         C 14 -- H 17         +13.6% ( 36.3%)     94.8%
 EFFECTIVE MASS      1.2345
 FORCE CONSTANT      1.1212

 VIBRATION         53   53A           ATOM PAIR      ENERGY CONTRIBUTION    RADIAL
 FREQUENCY          2741.72         C 14 -- H 17         +32.5% ( 56.2%)     97.1%
 TRANSITION DIPOLE   0.4807         C 14 -- H 16         +26.8% ( 51.1%)     95.5%
 TRAVEL (Ang.)       0.3145         C 11 -- H 15         +23.2% ( 47.4%)     97.5%
 REDUCED MASS        0.2486         C 11 -- H 13         +14.1% ( 37.1%)     93.6%
 EFFECTIVE MASS      1.2713
 FORCE CONSTANT      1.1010

 VIBRATION         54   54A           ATOM PAIR      ENERGY CONTRIBUTION    RADIAL
 FREQUENCY          2768.39         C  5 -- H  9         +89.0% ( 97.0%)    100.0%
 TRANSITION DIPOLE   1.1863         C  3 -- H  8          +3.4% ( 18.9%)    100.0%
 TRAVEL (Ang.)       0.1718         C  2 -- H  7          +2.1% ( 14.8%)    100.0%
 REDUCED MASS        0.8256         C  2 -- C  5          +1.3% ( 11.8%)     77.9%
 EFFECTIVE MASS      1.4275
 FORCE CONSTANT      3.7282

 VIBRATION         55   55A           ATOM PAIR      ENERGY CONTRIBUTION    RADIAL
 FREQUENCY          2780.98         C  3 -- H  8         +73.2% ( 87.8%)    100.0%
 TRANSITION DIPOLE   0.9108         C  2 -- H  7         +20.9% ( 46.9%)    100.0%
 TRAVEL (Ang.)       0.2016         C  3 -- C  5          +1.1% ( 10.8%)     85.9%
 REDUCED MASS        0.5965         N  1 -- C  3          +1.1% ( 10.6%)     93.7%
 EFFECTIVE MASS      1.4181
 FORCE CONSTANT      2.7180

 VIBRATION         56   56A           ATOM PAIR      ENERGY CONTRIBUTION    RADIAL
 FREQUENCY          2788.59         C 18 -- H 19         +34.1% ( 56.2%)     95.9%
 TRANSITION DIPOLE   0.3887         C 18 -- H 20         +32.3% ( 54.8%)     95.6%
 TRAVEL (Ang.)       0.2751         C 18 -- H 21         +32.1% ( 54.6%)     95.5%
 REDUCED MASS        0.3196         C 14 -- H 17          +0.4% (  6.0%)     81.6%
 EFFECTIVE MASS      1.1449
 FORCE CONSTANT      1.4644

 VIBRATION         57   57A           ATOM PAIR      ENERGY CONTRIBUTION    RADIAL
 FREQUENCY          2793.35         C  2 -- H  7         +71.7% ( 86.8%)    100.0%
 TRANSITION DIPOLE   0.7697         C  3 -- H  8         +18.3% ( 43.8%)     99.9%
 TRAVEL (Ang.)       0.2063         C  5 -- H  9          +4.4% ( 21.6%)    100.0%
 REDUCED MASS        0.5673         C  2 -- C  3          +1.7% ( 13.2%)     89.5%
 EFFECTIVE MASS      1.5091
 FORCE CONSTANT      2.6079

      SYMMETRY NUMBER FOR POINT-GROUP C1  =  1


          SYSTEM IS A GROUND STATE


 All coordinates are Cartesian
 bmi


          MOLECULE IS NOT LINEAR

          THERE ARE 57 GENUINE VIBRATIONS IN THIS SYSTEM
          THIS THERMODYNAMICS CALCULATION IS LIMITED TO
          MOLECULES WHICH HAVE NO INTERNAL ROTATIONS




                    CALCULATED THERMODYNAMIC PROPERTIES
                                          *
   TEMP. (K)   PARTITION FUNCTION   H.O.F.    ENTHALPY  HEAT CAPACITY ENTROPY
                                   KCAL/MOL   CAL/MOLE    CAL/K/MOL  CAL/K/MOL


 298.00  VIB.     0.1889D+04                  4181.1316    28.2818    29.0216
         ROT.     0.5176D+06                   888.2803     2.9808    29.1264
         INT.     0.9777D+09                  5069.4120    31.2626    58.1480
         TRA.     0.1338D+28                  1480.4672     4.9680    40.3614
         TOT.                       16.195    6549.8791    36.2306    98.5094

 200.00  VIB.     0.1815D+03                  1945.3568    17.7938    20.0627
         ROT.     0.2846D+06                   596.1613     2.9808    27.9377
         INT.     0.5165D+08                  2541.5180    20.7747    48.0004
         TRA.     0.7356D+27                   993.6021     4.9680    38.3803
         TOT.                       13.180    3535.1202    25.7427    86.3807

 210.00  VIB.     0.2316D+03                  2127.9209    18.7252    20.9532
         ROT.     0.3062D+06                   625.9693     2.9808    28.0832
         INT.     0.7091D+08                  2753.8902    21.7061    49.0364
         TRA.     0.7915D+27                  1043.2822     4.9680    38.6227
         TOT.                       13.442    3797.1724    26.6741    87.6591

 220.00  VIB.     0.2950D+03                  2319.9863    19.6940    21.8466
         ROT.     0.3283D+06                   655.7774     2.9808    28.2218
         INT.     0.9686D+08                  2975.7637    22.6748    50.0684
         TRA.     0.8487D+27                  1092.9623     4.9680    38.8538
         TOT.                       13.714    4068.7261    27.6428    88.9222

 230.00  VIB.     0.3752D+03                  2521.9215    20.6989    22.7440
         ROT.     0.3510D+06                   685.5855     2.9808    28.3543
         INT.     0.1317D+09                  3207.5070    23.6797    51.0984
         TRA.     0.9072D+27                  1142.6424     4.9680    39.0746
         TOT.                       13.995    4350.1494    28.6477    90.1730

 240.00  VIB.     0.4767D+03                  2734.0790    21.7381    23.6468
         ROT.     0.3741D+06                   715.3935     2.9808    28.4812
         INT.     0.1783D+09                  3449.4725    24.7189    52.1280
         TRA.     0.9670D+27                  1192.3226     4.9680    39.2861
         TOT.                       14.287    4641.7951    29.6869    91.4141

 250.00  VIB.     0.6050D+03                  2956.7882    22.8088    24.5558
         ROT.     0.3977D+06                   745.2016     2.9808    28.6029
         INT.     0.2406D+09                  3701.9898    25.7896    53.1587
         TRA.     0.1028D+28                  1242.0027     4.9680    39.4889
         TOT.                       14.589    4943.9924    30.7576    92.6475

 260.00  VIB.     0.7674D+03                  3190.3497    23.9080    25.4717
         ROT.     0.4218D+06                   775.0097     2.9808    28.7198
         INT.     0.3237D+09                  3965.3594    26.8888    54.1915
         TRA.     0.1090D+28                  1291.6828     4.9680    39.6837
         TOT.                       14.902    5257.0421    31.8568    93.8752

 270.00  VIB.     0.9730D+03                  3435.0313    25.0322    26.3950
         ROT.     0.4464D+06                   804.8177     2.9808    28.8323
         INT.     0.4343D+09                  4239.8490    28.0130    55.2273
         TRA.     0.1154D+28                  1341.3629     4.9680    39.8712
         TOT.                       15.226    5581.2119    32.9810    95.0985

 280.00  VIB.     0.1233D+04                  3691.0650    26.1778    27.3260
         ROT.     0.4714D+06                   834.6258     2.9808    28.9407
         INT.     0.5814D+09                  4525.6908    29.1586    56.2667
         TRA.     0.1219D+28                  1391.0430     4.9680    40.0519
         TOT.                       15.562    5916.7338    34.1266    96.3186

 290.00  VIB.     0.1563D+04                  3958.6459    27.3410    28.2649
         ROT.     0.4969D+06                   864.4339     2.9808    29.0453
         INT.     0.7766D+09                  4823.0797    30.3218    57.3102
         TRA.     0.1284D+28                  1440.7231     4.9680    40.2262
         TOT.                       15.909    6263.8028    35.2898    97.5364

 300.00  VIB.     0.1981D+04                  4237.9315    28.5181    29.2116
         ROT.     0.5228D+06                   894.2419     2.9808    29.1463
         INT.     0.1035D+10                  5132.1734    31.4989    58.3579
         TRA.     0.1351D+28                  1490.4032     4.9680    40.3947
         TOT.                       16.267    6622.5766    36.4669    98.7526

 310.00  VIB.     0.2510D+04                  4529.0424    29.7055    30.1660
         ROT.     0.5492D+06                   924.0500     2.9808    29.2441
         INT.     0.1379D+10                  5453.0924    32.6863    59.4101
         TRA.     0.1420D+28                  1540.0833     4.9680    40.5576
         TOT.                       16.638    6993.1757    37.6543    99.9677

 320.00  VIB.     0.3183D+04                  4832.0639    30.8997    31.1280
         ROT.     0.5760D+06                   953.8580     2.9808    29.3387
         INT.     0.1833D+10                  5785.9219    33.8805    60.4667
         TRA.     0.1489D+28                  1589.7634     4.9680    40.7153
         TOT.                       17.021    7375.6853    38.8485   101.1820

 330.00  VIB.     0.4036D+04                  5147.0472    32.0973    32.0971
         ROT.     0.6032D+06                   983.6661     2.9808    29.4304
         INT.     0.2435D+10                  6130.7133    35.0781    61.5276
         TRA.     0.1559D+28                  1639.4435     4.9680    40.8682
         TOT.                       17.415    7770.1568    40.0462   102.3957

 340.00  VIB.     0.5121D+04                  5474.0123    33.2955    33.0731
         ROT.     0.6308D+06                  1013.4742     2.9808    29.5194
         INT.     0.3231D+10                  6487.4864    36.2763    62.5926
         TRA.     0.1631D+28                  1689.1236     4.9680    41.0165
         TOT.                       17.822    8176.6100    41.2443   103.6090

 350.00  VIB.     0.6501D+04                  5812.9499    34.4914    34.0555
         ROT.     0.6588D+06                  1043.2822     2.9808    29.6058
         INT.     0.4283D+10                  6856.2321    37.4722    63.6614
         TRA.     0.1703D+28                  1738.8037     4.9680    41.1605
         TOT.                       18.240    8595.0358    42.4402   104.8219

 360.00  VIB.     0.8257D+04                  6163.8245    35.6825    35.0439
         ROT.     0.6873D+06                  1073.0903     2.9808    29.6898
         INT.     0.5675D+10                  7236.9148    38.6633    64.7337
         TRA.     0.1776D+28                  1788.4838     4.9680    41.3004
         TOT.                       18.670    9025.3986    43.6313   106.0342

 370.00  VIB.     0.1049D+05                  6526.5767    36.8666    36.0377
         ROT.     0.7161D+06                  1102.8984     2.9808    29.7715
         INT.     0.7514D+10                  7629.4751    39.8474    65.8092
         TRA.     0.1851D+28                  1838.1639     4.9680    41.4366
         TOT.                       19.113    9467.6390    44.8154   107.2458

 380.00  VIB.     0.1334D+05                  6901.1264    38.0417    37.0365
         ROT.     0.7453D+06                  1132.7064     2.9808    29.8510
         INT.     0.9944D+10                  8033.8328    41.0225    66.8875
         TRA.     0.1927D+28                  1887.8440     4.9680    41.5690
         TOT.                       19.567    9921.6768    45.9905   108.4565

 390.00  VIB.     0.1697D+05                  7287.3745    39.2060    38.0398
         ROT.     0.7749D+06                  1162.5145     2.9808    29.9284
         INT.     0.1315D+11                  8449.8890    42.1868    67.9682
         TRA.     0.2003D+28                  1937.5242     4.9680    41.6981
         TOT.                       20.032   10387.4131    47.1548   109.6663

 400.00  VIB.     0.2161D+05                  7685.2062    40.3582    39.0469
         ROT.     0.8049D+06                  1192.3226     2.9808    30.0039
         INT.     0.1739D+11                  8877.5288    43.3390    69.0508
         TRA.     0.2081D+28                  1987.2043     4.9680    41.8239
         TOT.                       20.510   10864.7331    48.3070   110.8747

   *: NOTE: HEATS OF FORMATION ARE RELATIVE TO THE
            ELEMENTS IN THEIR STANDARD STATE AT 298K
              (=  Standard Enthalpy of Formation).

            Hvib:  Zero-point energy is not included.
                   frequencies of less than zero cm-1 are not included.
            Hrot = (3/2)RT
            Htra = (3/2)RT + pV = (5/2)RT

            Heat capacity is Cp, not Cv

          For more information, see: HTTP://OpenMOPAC.net/Manual/thermochemistry.html


           FORCE CONSTANT IN CARTESIAN COORDINATES (Millidynes/A)

    ATOM   CHEMICAL       X               Y               Z
   NUMBER   SYMBOL  FORCE CONSTANT  FORCE CONSTANT  FORCE CONSTANT

      1       N       10.992900       11.887381        1.397528
      2       C        8.716201       11.353244        1.847234
      3       C       10.578733        9.141282        2.100608
      4       N        8.894934        8.612771        1.233063
      5       C       11.900230        7.660190        1.979154
      6       C        6.971890        7.189180        6.690046
      7       H        1.884572        3.200915        0.322518
      8       H        3.821982        1.236994        0.351689
      9       H        3.997189        1.049809        0.341518
     10       H        1.161993        2.571959        1.740012
     11       C        6.787899        6.858307        7.128032
     12       H        3.312813        0.866704        1.289229
     13       H        3.372671        0.647088        1.485318
     14       C        7.511928        6.747970        6.780329
     15       H        1.082598        3.662872        0.749494
     16       H        0.805448        0.817739        3.881887
     17       H        1.149185        3.730130        0.650612
     18       C        7.133732        6.341233        6.427633
     19       H        1.199017        3.623895        0.569110
     20       H        1.883152        1.766993        1.726449
     21       H        0.767853        0.851734        3.747776

 **********************
 *                    *
 * JOB ENDED NORMALLY *
 *                    *
 **********************



 TOTAL JOB TIME:             3.22 SECONDS

 == MOPAC DONE ==
