 *******************************************************************************
 **                                                                           **
 **                              MOPAC v22.1.1                                **
 **                                                                           **
 *******************************************************************************
 **          Digital Object Identifier (DOI): 10.5281/zenodo.6511958          **
 **    Visit the DOI location for information on how to cite this program.    **
 *******************************************************************************

                              PM6 CALCULATION RESULTS

 *******************************************************************************
 *  CALCULATION DONE:                                Tue May  7 17:21:16 2024  *
 *  PM6        - The PM6 Hamiltonian to be used
 *  MMOK       - APPLY MM CORRECTION TO CONH BARRIER
 *  STATIC     - CALCULATE STATIC FIELD POLARIZABILITIES
 *  POLAR      - CALCULATE FIRST, SECOND AND THIRD-ORDER POLARIZABILITIES
 *  PRECISE    - TIGHTER CRITERIA TO BE USED
 *  XYZ        - CARTESIAN COORDINATE SYSTEM TO BE USED
 *  T=         - A TIME OF 172800.0 SECONDS REQUESTED
 *  DUMP=N     - RESTART FILE WRITTEN EVERY 7200.0 SECONDS REQUESTED
 *  CYCLES=    - DO A MAXIMUM OF 8000 STEPS
 *  ENPART     - ENERGY TO BE PARTITIONED INTO COMPONENTS
 *  PRTXYZ     - PRINT CARTESIAN COORDINATES
 *  DISP       - PRINT DISPERSION AND HYDROGEN BOND ENERGIES
 *  BONDS      - FINAL BOND-ORDER MATRIX TO BE PRINTED
 *  LARGE      - EXPANDED OUTPUT TO BE PRINTED
 *  SUPER      - PRINT SUPERDELOCALIZABILITIES
 *  ALLVEC     - PRINT ALL EIGENVECTORS
 *******************************************************************************
PM6 PRECISE POLAR MMOK XYZ ENPART STATIC SUPER BONDS LARGE PRTXYZ DISP ALLVEC CYCLES = 8000
 mescn
 All coordinates are Cartesian
   ATOM   CHEMICAL          X               Y               Z
  NUMBER   SYMBOL      (ANGSTROMS)     (ANGSTROMS)     (ANGSTROMS)
 
     1       C         -0.90400000  *  -0.59700000  *   0.00000000  *
     2       N         -1.55900000  *  -1.56300000  *   0.00000000  *
     3       S          0.00000000  *   0.84500000  *   0.00000000  *
     4       C          1.70400000  *   0.14800000  *   0.00000000  *
     5       H          2.36800000  *   1.01500000  *   0.00000000  *
     6       H          1.87200000  *  -0.44600000  *   0.89800000  *
     7       H          1.87200000  *  -0.44600000  *  -0.89800000  *
 


          CARTESIAN COORDINATES 

    NO.       ATOM           X           Y           Z

     1         C         -0.9040     -0.5970      0.0000
     2         N         -1.5590     -1.5630      0.0000
     3         S          0.0000      0.8450      0.0000
     4         C          1.7040      0.1480      0.0000
     5         H          2.3680      1.0150      0.0000
     6         H          1.8720     -0.4460      0.8980
     7         H          1.8720     -0.4460     -0.8980

 General Reference for PM6:
 "Optimization of Parameters for Semiempirical Methods V: Modification of NDDO Approximations
 and Application to 70 Elements", J. J. P. Stewart, J. Mol. Mod., 13, 1173-1213 (2007)
 URL: https://link.springer.com/article/10.1007/s00894-007-0233-4

           Empirical Formula: C2 H3 N S  =     7 atoms



      MOLECULAR POINT GROUP   :   Cs  


      RHF CALCULATION, NO. OF DOUBLY OCCUPIED LEVELS = 11


          Geometry optimization using EF

          DIAGONAL MATRIX USED AS START HESSIAN

 CYCLE:     1 TIME:   0.012 TIME LEFT:  2.00D  GRAD.:    54.202 HEAT:  34.96140
 CYCLE:     2 TIME:   0.031 TIME LEFT:  2.00D  GRAD.:    78.263 HEAT:  34.93001
 CYCLE:     3 TIME:   0.008 TIME LEFT:  2.00D  GRAD.:     7.304 HEAT:  34.27780
 CYCLE:     4 TIME:   0.012 TIME LEFT:  2.00D  GRAD.:     7.770 HEAT:  34.24672
 CYCLE:     5 TIME:   0.008 TIME LEFT:  2.00D  GRAD.:     7.367 HEAT:  34.23767
 CYCLE:     6 TIME:   0.016 TIME LEFT:  2.00D  GRAD.:     2.763 HEAT:  34.22127
 CYCLE:     7 TIME:   0.008 TIME LEFT:  2.00D  GRAD.:     6.466 HEAT:  34.22610
 CYCLE:     8 TIME:   0.004 TIME LEFT:  2.00D  GRAD.:     1.932 HEAT:  34.21578
 CYCLE:     9 TIME:   0.008 TIME LEFT:  2.00D  GRAD.:     4.535 HEAT:  34.21619
 CYCLE:    10 TIME:   0.008 TIME LEFT:  2.00D  GRAD.:     1.387 HEAT:  34.21036
 CYCLE:    11 TIME:   0.004 TIME LEFT:  2.00D  GRAD.:     2.091 HEAT:  34.20813
 CYCLE:    12 TIME:   0.008 TIME LEFT:  2.00D  GRAD.:     0.999 HEAT:  34.20400
 CYCLE:    13 TIME:   0.008 TIME LEFT:  2.00D  GRAD.:     0.598 HEAT:  34.20170
 CYCLE:    14 TIME:   0.008 TIME LEFT:  2.00D  GRAD.:     0.125 HEAT:  34.20129
 CYCLE:    15 TIME:   0.004 TIME LEFT:  2.00D  GRAD.:     0.019 HEAT:  34.20127

     GRADIENT =  0.01869 IS LESS THAN CUTOFF =  0.05000



 -------------------------------------------------------------------------------
 PM6 PRECISE POLAR MMOK XYZ ENPART STATIC SUPER BONDS LARGE PRTXYZ DISP ALLVEC CYCLES = 8000
 mescn
 All coordinates are Cartesian


     GEOMETRY OPTIMISED USING EIGENVECTOR FOLLOWING (EF).     
     SCF FIELD WAS ACHIEVED                                   


                              PM6 CALCULATION
                                                       MOPAC v22.1.1 MacOS
                                                       Tue May  7 17:21:17 2024




          FINAL HEAT OF FORMATION =         34.20127 KCAL/MOL =     143.09812 KJ/MOL

          TOTAL ENERGY            =     -14729.55513 KCAL/MOL = ELECTRONIC ENERGY + CORE-CORE REPULSION
          ENERGY OF ATOMS         =      14763.75640 KCAL/MOL
                              SUM =         34.20127 KCAL/MOL
          DISPERSION ENERGY       =          0.00000 KCAL/MOL
                              SUM =         34.20127 KCAL/MOL = FINAL HEAT OF FORMATION



          TOTAL ENERGY            =       -638.73396 EV
          ELECTRONIC ENERGY       =      -1796.02497 EV 
          CORE-CORE REPULSION     =       1157.29100 EV
          COSMO AREA              =        107.13 SQUARE ANGSTROMS
          COSMO VOLUME            =         91.28 CUBIC ANGSTROMS

          GRADIENT NORM           =          0.01869          =       0.00706 PER ATOM
          IONIZATION POTENTIAL    =          9.473155 EV
          HOMO LUMO ENERGIES (EV) =         -9.473 -0.431
          NO. OF FILLED LEVELS    =         11
          MOLECULAR WEIGHT        =         73.1124         POINT GROUP:  Cs  

          MOLECULAR DIMENSIONS (Angstroms)

            Atom       Atom       Distance
            H     5    N     2     4.71942
            S     3    H     7     2.26758
            S     3    H     6     1.63696


          SCF CALCULATIONS        =         21
 
          WALL-CLOCK TIME         =      0.160 SECONDS
          COMPUTATION TIME        =      0.163 SECONDS




   ATOM   CHEMICAL          X               Y               Z
  NUMBER   SYMBOL      (ANGSTROMS)     (ANGSTROMS)     (ANGSTROMS)
 
     1       C         -0.90531581  *  -0.60656192  *   0.00000000  *
     2       N         -1.57763290  *  -1.54531393  *  -0.00000000  *
     3       S          0.00878339  *   0.81958123  *   0.00000000  *
     4       C          1.68917064  *   0.17017071  *  -0.00000001  *
     5       H          2.37862232  *   1.02781340  *   0.00000000  *
     6       H          1.90451763  *  -0.43545560  *   0.88986172  *
     7       H          1.90451762  *  -0.43545558  *  -0.88986169  *

                             CARTESIAN COORDINATES

   1    C       -0.905315810    -0.606561922     0.000000000
   2    N       -1.577632899    -1.545313935    -0.000000000
   3    S        0.008783390     0.819581227     0.000000001
   4    C        1.689170639     0.170170710    -0.000000011
   5    H        2.378622317     1.027813399     0.000000004
   6    H        1.904517626    -0.435455596     0.889861723
   7    H        1.904517624    -0.435455583    -0.889861693


           Empirical Formula: C2 H3 N S  =     7 atoms



      MOLECULAR POINT GROUP   :   Cs  


                EIGENVECTORS  


   Root No.       1         2         3         4         5         6         7         8

                 1 a'      2 a'      3 a'      4 a'      1 a"      5 a'      6 a'      2 a"  

               -31.936   -29.912   -24.193   -17.373   -15.295   -15.025   -14.316   -14.180
  
  S   C    1    0.5684    0.0028   -0.1743    0.4203    0.0000    0.1105    0.1692    0.0000
  Px  C    1   -0.1246    0.2161   -0.0998    0.1550   -0.0000   -0.2762    0.4090    0.0000
  Py  C    1   -0.1810    0.2766   -0.2119    0.2506    0.0000    0.2405   -0.3073   -0.0000
  Pz  C    1   -0.0000   -0.0000   -0.0000   -0.0000    0.2677   -0.0000   -0.0000    0.6308
  S   N    2    0.6118   -0.3194    0.1290   -0.3367   -0.0000   -0.1142   -0.2525   -0.0000
  Px  N    2    0.1989   -0.0632    0.0071    0.1180   -0.0000   -0.1991    0.5587    0.0000
  Py  N    2    0.2750   -0.0961   -0.0196    0.1890    0.0000    0.2807   -0.0830   -0.0000
  Pz  N    2    0.0000   -0.0000   -0.0000   -0.0000    0.2307   -0.0000   -0.0000    0.6438
  S   S    3    0.3139    0.7035   -0.3523   -0.3311   -0.0000    0.0211   -0.1358   -0.0000
  Px  S    3   -0.0232    0.1025    0.2433   -0.3503   -0.0000   -0.1886    0.1999    0.0000
  Py  S    3   -0.1347   -0.1567    0.0767   -0.3099    0.0000    0.1405   -0.1176   -0.0000
  Pz  S    3   -0.0000   -0.0000   -0.0000   -0.0000    0.2927   -0.0000   -0.0000    0.1437
  x2  S    3   -0.0022    0.0107    0.0356   -0.0653    0.0000    0.0211   -0.0058   -0.0000
  xz  S    3   -0.0000   -0.0000   -0.0000   -0.0000    0.0255   -0.0000    0.0000   -0.0477
  z2  S    3   -0.0169   -0.0279    0.0011   -0.0347   -0.0000    0.0002   -0.0299   -0.0000
  yz  S    3    0.0000    0.0000    0.0000    0.0000   -0.0293    0.0000    0.0000   -0.0294
  xy  S    3    0.0139    0.0018   -0.0494    0.0939    0.0000    0.0817    0.0064    0.0000
  S   C    4    0.1138    0.3846    0.6138    0.0674    0.0000    0.0025   -0.0067   -0.0000
  Px  C    4   -0.0541   -0.1191    0.1753    0.2259    0.0000    0.3888   -0.0339    0.0000
  Py  C    4    0.0053    0.0363   -0.0333   -0.3315    0.0000    0.5142    0.3980    0.0000
  Pz  C    4   -0.0000   -0.0000   -0.0000   -0.0000    0.6973   -0.0000    0.0000   -0.3141
  S   H    5    0.0372    0.1490    0.3262   -0.0439    0.0000    0.4494    0.2065    0.0000
  S   H    6    0.0459    0.1501    0.3081    0.1782    0.3884   -0.1445   -0.1603   -0.1803
  S   H    7    0.0459    0.1501    0.3081    0.1782   -0.3884   -0.1445   -0.1603    0.1803


   Root No.       9        10        11        12        13        14        15        16

                 7 a'      8 a'      3 a"      9 a'     10 a'      4 a"     11 a'      5 a"  

               -12.914   -11.622    -9.473    -0.431    -0.304     0.783     0.991     1.896
  
  S   C    1    0.0598   -0.0915    0.0000    0.1352    0.3007   -0.0000   -0.0598    0.0000
  Px  C    1   -0.3752   -0.0709    0.0000    0.2637    0.0792    0.0000   -0.4569   -0.0000
  Py  C    1   -0.0747   -0.3215    0.0000   -0.0179    0.3213   -0.0000    0.2655    0.0000
  Pz  C    1    0.0000   -0.0000   -0.0483   -0.0000    0.0000    0.6167    0.0000   -0.0060
  S   N    2   -0.4075   -0.2286    0.0000    0.0188    0.0351   -0.0000   -0.0012    0.0000
  Px  N    2    0.0174    0.3702   -0.0000   -0.2640    0.0773   -0.0000    0.4297    0.0000
  Py  N    2    0.5919    0.1372    0.0000    0.1573   -0.1697    0.0000   -0.2704   -0.0000
  Pz  N    2    0.0000   -0.0000   -0.2952    0.0000   -0.0000   -0.5997   -0.0000    0.0038
  S   S    3   -0.0658    0.3309   -0.0000    0.0412   -0.1550    0.0000    0.0436    0.0000
  Px  S    3    0.3544   -0.2325    0.0000    0.5829   -0.0024   -0.0000    0.2526    0.0000
  Py  S    3    0.0136    0.5512   -0.0000    0.1144    0.6498    0.0000   -0.1617    0.0000
  Pz  S    3   -0.0000    0.0000    0.9282   -0.0000    0.0000   -0.1504   -0.0000    0.0371
  x2  S    3    0.0834   -0.0552    0.0000   -0.4068    0.0197   -0.0000    0.2666   -0.0000
  xz  S    3   -0.0000    0.0000   -0.0387    0.0000   -0.0000   -0.2345    0.0000    0.8544
  z2  S    3   -0.0174    0.1117    0.0000    0.0584   -0.3731   -0.0000    0.1367   -0.0000
  yz  S    3    0.0000   -0.0000    0.0310   -0.0000    0.0000   -0.4262   -0.0000   -0.5048
  xy  S    3   -0.0847   -0.0397    0.0000    0.3768    0.2221   -0.0000    0.4868   -0.0000
  S   C    4    0.0596   -0.0805   -0.0000   -0.1754    0.1339   -0.0000   -0.0732    0.0000
  Px  C    4   -0.3976    0.3195   -0.0000    0.3208   -0.3151   -0.0000    0.1658    0.0000
  Py  C    4   -0.0149   -0.2400    0.0000   -0.1276    0.0663    0.0000   -0.0545   -0.0000
  Pz  C    4    0.0000    0.0000   -0.1438   -0.0000    0.0000   -0.0057   -0.0000    0.0234
  S   H    5   -0.1624   -0.0366   -0.0000   -0.0393   -0.0656    0.0000   -0.0674    0.0000
  S   H    6   -0.0175    0.1079   -0.1138    0.0089    0.0381    0.0189    0.0143   -0.0812
  S   H    7   -0.0175    0.1079    0.1138    0.0089    0.0381   -0.0189    0.0143    0.0812


   Root No.      17        18        19        20        21        22        23        24

                12 a'     13 a'      6 a"     14 a'     15 a'      7 a"     16 a'     17 a'  

                 2.121     2.176     2.274     2.708     4.657     4.754     5.336     5.565
  
  S   C    1   -0.1241    0.1509   -0.0000   -0.2748    0.0163   -0.0000   -0.4360    0.0300
  Px  C    1    0.1894    0.2793    0.0000   -0.0275    0.0041    0.0000    0.3393   -0.0064
  Py  C    1   -0.2619   -0.0593   -0.0000   -0.2327    0.0107   -0.0000    0.4689   -0.0401
  Pz  C    1   -0.0000    0.0000    0.3841    0.0000    0.0000    0.0100    0.0000   -0.0000
  S   N    2   -0.0016   -0.0016   -0.0000    0.0039   -0.0001    0.0000    0.3108   -0.0195
  Px  N    2   -0.1669   -0.2053   -0.0000   -0.0027   -0.0007    0.0000    0.3496   -0.0277
  Py  N    2    0.1792    0.0651    0.0000    0.1357   -0.0063    0.0000    0.4920   -0.0262
  Pz  N    2    0.0000   -0.0000   -0.2922   -0.0000   -0.0000   -0.0050    0.0000    0.0000
  S   S    3    0.0826   -0.0652    0.0000    0.0017    0.0022   -0.0000   -0.0372    0.0055
  Px  S    3   -0.0184   -0.0630    0.0000   -0.3744    0.0340   -0.0000    0.0247   -0.0451
  Py  S    3   -0.0905    0.1769   -0.0000   -0.1145    0.0424   -0.0000    0.0382    0.0218
  Pz  S    3    0.0000    0.0000   -0.0801    0.0000   -0.0000   -0.0427    0.0000    0.0000
  x2  S    3    0.5945    0.5000    0.0000   -0.3671    0.0838   -0.0000    0.0335   -0.0263
  xz  S    3   -0.0000    0.0000    0.4481    0.0000   -0.0000   -0.0986    0.0000    0.0000
  z2  S    3   -0.5762    0.6985   -0.0000    0.0213    0.0036    0.0000    0.0426    0.0232
  yz  S    3   -0.0000   -0.0000    0.7481   -0.0000    0.0000    0.0341   -0.0000   -0.0000
  xy  S    3    0.2730    0.2091    0.0000    0.6478    0.0477   -0.0000   -0.0577    0.0356
  S   C    4   -0.0725    0.0491   -0.0000    0.1342   -0.0324    0.0000    0.0350    0.6048
  Px  C    4    0.1841   -0.1314    0.0000   -0.3342   -0.1942    0.0000    0.0216    0.2406
  Py  C    4   -0.0459    0.0631   -0.0000    0.1000   -0.5969    0.0000   -0.0099   -0.1040
  Pz  C    4   -0.0000   -0.0000    0.0049   -0.0000    0.0000    0.6275   -0.0000   -0.0000
  S   H    5   -0.0565   -0.0405    0.0000    0.0528    0.6455   -0.0000   -0.0265   -0.4005
  S   H    6    0.0151    0.0379   -0.0063    0.0163   -0.2962   -0.5447   -0.0304   -0.4448
  S   H    7    0.0151    0.0379    0.0063    0.0163   -0.2962    0.5447   -0.0304   -0.4448

           SUPERDELOCALIZABILITIES

 Mulliken electronegativity:        4.952032
 Parr & Pople absolute hardness:    4.521124
 Schuurmann MO shift alpha:        -4.952032
 
 Ehomo:                            -9.473155
 Elumo:                            -0.430908


  a   n        Dn(r)        De(r)   q(r) - Z(r)

  C   1    -0.593548    -0.353555    -4.037089
  N   2    -0.417993    -0.512278    -5.157439
  S   3    -1.941815    -0.740369    -5.848198
  C   4    -1.186284    -0.009929    -0.078368

 Total:    -4.139640    -1.616131

  a   n        piS(r)

  C   1    -0.211529
  N   2    -0.198427
  S   3    -0.170912
  C   4    -0.196113

 Total:    -0.776981

  a   n       homo-1         homo         lumo       lumo+1

  C   1    11.673953     0.233509     8.814089    19.992897
  N   2    20.809545     8.713520     9.478771     3.599906
  S   3    48.441974    86.392555    66.542717    63.523370
  C   4     1.551844     0.245681    16.888765    13.960394


              NET ATOMIC CHARGES AND DIPOLE CONTRIBUTIONS

  ATOM NO.   TYPE          CHARGE      No. of ELECS.   s-Pop       p-Pop       d-Pop       
    1          C          -0.037089        4.0371     1.16568     2.87141
    2          N          -0.157439        5.1574     1.80283     3.35461
    3          S           0.151802        5.8482     1.91972     3.79626     0.13221
    4          C          -0.524347        4.5243     1.10440     3.41995
    5          H           0.191592        0.8084     0.80841
    6          H           0.187741        0.8123     0.81226
    7          H           0.187741        0.8123     0.81226
 DIPOLE           X         Y         Z       TOTAL
 POINT-CHG.     2.730     1.606     0.000     3.168
 HYBRID         0.603     0.094    -0.000     0.610
 SUM            3.333     1.700     0.000     3.742


          ATOMIC ORBITAL ELECTRON POPULATIONS

     Atom    s        px        py        pz      x^2-y^2     xz        z^2       yz        xy
    1  C   1.16568   0.97124   0.95623   0.94394
    2  N   1.80283   1.09327   1.15157   1.10978
    3  S   1.91972   0.89629   0.96442   1.93555   0.03227   0.00885   0.03188   0.00538   0.05384
    4  C   1.10440   1.02266   1.18606   1.21122
    5  H   0.80841
    6  H   0.81226
    7  H   0.81226

          BONDING CONTRIBUTION OF EACH M.O.

  1.4688  1.1158  1.7499  1.3636  1.7501  1.8945  1.6824  1.9026  1.3508  1.2929
  0.3613 -1.0376 -1.4226 -1.6059 -1.3242 -0.0343 -0.5720 -0.5258 -0.5037 -1.2149
 -1.9171 -1.9240 -1.9541 -1.8963





            (VALENCIES)   BOND ORDERS

     1  C     (3.944)     2  N 2.899     3  S 1.034
 
     2  N     (3.024)     1  C 2.899     3  S 0.106     4  C 0.018
 
     3  S     (2.175)     1  C 1.034     4  C 1.014     2  N 0.106
 
     4  C     (3.897)     3  S 1.014     6  H 0.957     7  H 0.957     5  H 0.945     2  N 0.018
 
     5  H     (0.963)     4  C 0.945
 
     6  H     (0.965)     4  C 0.957
 
     7  H     (0.965)     4  C 0.957
 




 SELF-Q:    SELF OR INACTIVE CHARGE
 ACTIV-Q:   CHARGE WHICH IS USED TO FORM BONDS
 TOTAL-Q:   SELF-Q + ACTIV-Q
 FREE-VA:   TOTAL-Q - VALENCE
 STAT.PROM: TOTAL-Q - CORE CHARGE
 MULL.PROM: -CHARGE (SEE ABOVE)

       SELF-Q    ACTIV-Q   TOTAL-Q   VALENCE   FREE-VA STAT.PROM MULL.PROM


   1   0.09283   3.94426   4.03709   3.94426   0.00000   0.03709   0.03709

   2   2.13342   3.02402   5.15744   3.02402   0.00000   0.15744   0.15744

   3   3.67352   2.17468   5.84820   2.17468   0.00000  -0.15180  -0.15180

   4   0.62747   3.89688   4.52435   3.89688   0.00000   0.52435   0.52435

   5  -0.15488   0.96329   0.80841   0.96329   0.00000  -0.19159  -0.19159

   6  -0.15249   0.96475   0.81226   0.96475   0.00000  -0.18774  -0.18774

   7  -0.15249   0.96475   0.81226   0.96475   0.00000  -0.18774  -0.18774

 CLOSED SHELL





          TOTAL ENERGY PARTITIONING

          ALL ENERGIES ARE IN ELECTRON VOLTS

            ONE-CENTER TERMS 
          E-E:  ELECTRON-ELECTRON REPULSION
          E-N:  ELECTRON-NUCLEAR ATTRACTION


   ATOM      E-E       E-N    (E-E + E-N)
   C   1    74.4517 -174.2322  -99.7805
   N   2   109.1273 -271.5478 -162.4205
   S   3    82.0835 -246.1476 -164.0641
   C   4    92.4175 -193.0090 -100.5915
   H   5     2.3606   -9.0921   -6.7315
   H   6     2.3832   -9.1354   -6.7523
   H   7     2.3832   -9.1354   -6.7523

              TWO-CENTER TERMS
           
          J:   RESONANCE ENERGY          E-E: ELECTRON-ELECTRON REPULSION
          K:   EXCHANGE ENERGY           E-N: ELECTRON-NUCLEAR ATTRACTION
                                         N-N: NUCLEAR-NUCLEAR REPULSION
          C:   COULOMBIC INTERACTION = E-E + E-N + N-N
          EE:  TOTAL OF ELECTRONIC AND NUCLEAR ENERGIES


     ATOM          J        K       E-E       E-N      N-N      C        EE
     PAIR
 
  N    2  C    1  -31.9903 -14.8225 173.7879 -353.1304 193.3824 14.0399 -32.7729
 
  S    3  C    1  -11.9769  -4.7818 153.6711 -314.7823 165.7871  4.6759 -12.0829
  S    3  N    2    0.1918  -0.2337 133.9521 -270.7419 136.8044  0.0146  -0.0273
 
  C    4  C    1    0.0699  -0.0162  90.3247 -169.2212  79.1116  0.2151   0.2688
  C    4  N    2    0.0030  -0.0361  85.9884 -160.4666  74.6709  0.1928   0.1597
  C    4  S    3   -9.5767  -4.4854 164.6745 -320.2851 158.2571  2.6465 -11.4156
 
  H    5  C    1   -0.0081  -0.0104  12.3858  -27.5352  15.1088 -0.0407  -0.0592
  H    5  N    2    0.0000  -0.0009  12.2842  -27.2171  14.8706 -0.0623  -0.0631
  H    5  S    3   -0.0834  -0.0289  24.9409  -56.6907  32.1512  0.4013   0.2891
  H    5  C    4  -11.1646  -5.2568  34.1529  -73.0253  42.9934  4.1210 -12.3004
 
  H    6  C    1    0.0083  -0.0010  15.1464  -33.5966  18.4065 -0.0437  -0.0365
  H    6  N    2   -0.0005  -0.0005  15.2617  -33.7317  18.3960 -0.0740  -0.0750
  H    6  S    3    0.0120  -0.0143  24.5151  -55.6241  31.4741  0.3651   0.3629
  H    6  C    4  -11.2789  -5.3258  34.3808  -73.2919  43.0772  4.1660 -12.4387
  H    6  H    5   -0.0941  -0.0044   4.6409  -11.4543   7.1516  0.3382   0.2397

   ATOM          J        K       E-E       E-N      N-N      C        EE
   PAIR
  H    7  C    1    0.0083  -0.0010  15.1464  -33.5966  18.4065 -0.0437  -0.0365
  H    7  N    2   -0.0005  -0.0005  15.2617  -33.7317  18.3960 -0.0740  -0.0750
  H    7  S    3    0.0120  -0.0143  24.5151  -55.6241  31.4741  0.3651   0.3629
  H    7  C    4  -11.2789  -5.3258  34.3808  -73.2919  43.0772  4.1660 -12.4387
  H    7  H    5   -0.0941  -0.0044   4.6409  -11.4543   7.1516  0.3382   0.2397
  H    7  H    6   -0.0717  -0.0026   4.6576  -11.4682   7.1428  0.3321   0.2579
 

                    Total contribution from hydrogen bonds:         0.000 disp.:    0.000 Tot:     0.000 kcal/mol




***  SUMMARY OF ENERGY PARTITION  ***
 ---------------------------------------
     ONE-CENTER TERMS

 ELECTRON-NUCLEAR  (ONE-ELECTRON)         -912.2997 EV
 ELECTRON-ELECTRON (TWO-ELECTRON)          365.2071 EV

 TOTAL OF ONE-CENTER TERMS                -547.0926 EV
 ---------------------------------------
     TWO-CENTER TERMS

 RESONANCE ENERGY                          -87.3134 EV
 EXCHANGE ENERGY                           -40.3672 EV

 EXCHANGE + RESONANCE ENERGY:             -127.6806 EV

 ELECTRON-ELECTRON REPULSION              1078.7098 EV
 ELECTRON-NUCLEAR ATTRACTION             -2199.9615 EV
 NUCLEAR-NUCLEAR REPULSION                1157.2910 EV

 TOTAL ELECTROSTATIC INTERACTION            36.0393 EV

 GRAND TOTAL OF TWO-CENTER TERMS           -91.6413 EV
 ---------------------------------------
 ETOT (EONE + ETWO)                       -638.7340 EV


 ******************** TDHF POLARIZABILITIES ********************



          MOLECULAR WEIGHT =   73.11



          ROTATIONAL CONSTANTS IN CM(-1)

          A =    0.55671762   B =    0.13423830   C =    0.11042031



           PRINCIPAL MOMENTS OF INERTIA IN UNITS OF 10**(-40)*GRAM-CM**2

          A =       50.2818   B =      208.5303   C =      253.5109


 ROTATION MATRIX FOR ORIENTATION OF MOLECULE:

         0.811705   -0.584067    0.000000
         0.584067    0.811705   -0.000000
        -0.000000    0.000000    1.000000


          CARTESIAN COORDINATES 

    NO.       ATOM         X         Y         Z

     1         C       -1.0171   -0.0078    0.0000
     2         N       -2.1111   -0.3771   -0.0000
     3         S        0.5579    0.6159    0.0000
     4         C        1.5426   -0.8927   -0.0000
     5         H        2.6031   -0.5992    0.0000
     6         H        1.3636   -1.5101    0.8899
     7         H        1.3636   -1.5101   -0.8899


 ENERGY OF "REORIENTED" SYSTEM WITHOUT FIELD:       34.2012720262


  NFREQ=  3  IWFLB=  0  IBET=  1  IGAM=  1
  ATOL= 0.10000D-02  BTOL= 0.10000D-02    MAXITU=  500    MAXITA=  150


 *****************************************************************
 CALCULATION OF STATIC FIELD QUANTITIES
 *****************************************************************

 +++++ ALPHA AT       0.00000 EV.

                           COMPONENTS OF ALPHA

                     *X           *Y           *Z
           *=X:      71.8638       3.8635       0.0030
           *=Y:       3.8544      48.8581       0.0115
           *=Z:       0.0000      -0.0000      34.4593

  ISOTROPIC AVERAGE ALPHA =      51.72708 A.U. =      7.66516 ANG.**3

 +++++ BETA (SECOND HARMONIC GENERATION) AT       0.00000 EV.

                              COMPONENTS OF BETA
            *XX         *XY         *YY         *XZ         *YZ         *ZZ
   *=X    75.15142    38.98487    -0.46145    -0.08021    -0.03754   -28.12166
   *=Y    38.94891    -0.35797   -12.04730    -0.03711    -0.12186     1.74759
   *=Z    -0.00000     0.00000    -0.00000   -28.12283     1.73820    -0.00699


 AVERAGE BETAX(SHG) VALUE AT   0.00000 EV =         27.9819 a.u. =  0.241747E-30 ESU
 AVERAGE BETAY(SHG) VALUE AT   0.00000 EV =         17.2002 a.u. =  0.148599E-30 ESU
 AVERAGE BETAZ(SHG) VALUE AT   0.00000 EV =         -0.0850 a.u. = -0.734584E-33 ESU



 AVERAGE BETA (SHG) VALUE AT   0.00000 EV =         32.8457 a.u. =  0.283768E-30 ESU
   (1 a.u. = 8.639418X10-33 esu)



 +++++ ALPHA AT       0.00000 EV.

                           COMPONENTS OF ALPHA

                     *X           *Y           *Z
           *=X:      71.8636       3.8635       0.0030
           *=Y:       3.8530      48.8581       0.0115
           *=Z:       0.0000      -0.0000      34.4593

  ISOTROPIC AVERAGE ALPHA =      51.72699 A.U. =      7.66515 ANG.**3


 GAMMA (THIRD HARMONIC GENERATION) AT    0.00000 EV.


 GAMMA(X,X,X,X) =          9066.89405
 GAMMA(Y,Y,Y,Y) =          1066.53596
 GAMMA(Z,Z,Z,Z) =            65.08261
 GAMMA(X,X,Y,Y) =          1944.22986
 GAMMA(X,X,Z,Z) =           629.28257
 GAMMA(Y,Y,X,X) =          1944.55256
 GAMMA(Y,Y,Z,Z) =           134.50495
 GAMMA(Z,Z,X,X) =           629.40072
 GAMMA(Z,Z,Y,Y) =           134.64422


 AVERAGE GAMMA VALUE AT    0.00000 =          3123.02550 a.u. =         1572.97506 ESU (X10-39)




 **********************************************************************
 CALCULATION FOR A FREQUENCY OF    0.25000 EV  =       0.00919 A.U. 
                  WAVELENGTH OF    4959.37 NM  =    2016.38525 CM(-1)
 **********************************************************************

 +++++ ALPHA AT       0.25000 EV.

                           COMPONENTS OF ALPHA

                     *X           *Y           *Z
           *=X:      71.9077       3.8665       0.0031
           *=Y:       3.8568      48.8849       0.0118
           *=Z:       0.0000      -0.0000      34.4674

  ISOTROPIC AVERAGE ALPHA =      51.75333 A.U. =      7.66905 ANG.**3

 +++++ BETA (SECOND HARMONIC GENERATION) AT       0.25000 EV.

                              COMPONENTS OF BETA
            *XX         *XY         *YY         *XZ         *YZ         *ZZ
   *=X    76.19101    39.36844    -0.41138    -0.08292    -0.03931   -28.31646
   *=Y    39.16572    -0.42794   -12.72923    -0.03942    -0.12876     1.68532
   *=Z    -0.00009    -0.00002    -0.00000   -28.37356     1.72467    -0.00722


 AVERAGE BETAX(SHG) VALUE AT   0.25000 EV =         28.4484 a.u. =  0.245778E-30 ESU
 AVERAGE BETAY(SHG) VALUE AT   0.25000 EV =         16.9699 a.u. =  0.146610E-30 ESU
 AVERAGE BETAZ(SHG) VALUE AT   0.25000 EV =         -0.0890 a.u. = -0.769111E-33 ESU



 AVERAGE BETA (SHG) VALUE AT   0.25000 EV =         33.1255 a.u. =  0.286185E-30 ESU
   (1 a.u. = 8.639418X10-33 esu)



 +++++ ALPHA AT       0.75000 EV.

                           COMPONENTS OF ALPHA

                     *X           *Y           *Z
           *=X:      72.2637       3.8916       0.0028
           *=Y:       3.8823      49.1052       0.0111
           *=Z:       0.0000      -0.0000      34.5331

  ISOTROPIC AVERAGE ALPHA =      51.96733 A.U. =      7.70076 ANG.**3


 GAMMA (THIRD HARMONIC GENERATION) AT    0.25000 EV.


 GAMMA(X,X,X,X) =          9329.11541
 GAMMA(Y,Y,Y,Y) =          1147.85501
 GAMMA(Z,Z,Z,Z) =            67.04347
 GAMMA(X,X,Y,Y) =          2006.10204
 GAMMA(X,X,Z,Z) =           643.22572
 GAMMA(Y,Y,X,X) =          2026.14550
 GAMMA(Y,Y,Z,Z) =           136.60079
 GAMMA(Z,Z,X,X) =           632.62643
 GAMMA(Z,Z,Y,Y) =           135.40835


 AVERAGE GAMMA VALUE AT    0.25000 =          3224.82455 a.u. =         1624.24821 ESU (X10-39)




 **********************************************************************
 CALCULATION FOR A FREQUENCY OF    0.50000 EV  =       0.01837 A.U. 
                  WAVELENGTH OF    2479.68 NM  =    4032.77050 CM(-1)
 **********************************************************************

 +++++ ALPHA AT       0.50000 EV.

                           COMPONENTS OF ALPHA

                     *X           *Y           *Z
           *=X:      72.0409       3.8755       0.0033
           *=Y:       3.8684      48.9659       0.0127
           *=Z:      -0.0000      -0.0000      34.4917

  ISOTROPIC AVERAGE ALPHA =      51.83282 A.U. =      7.68083 ANG.**3

 +++++ BETA (SECOND HARMONIC GENERATION) AT       0.50000 EV.

                              COMPONENTS OF BETA
            *XX         *XY         *YY         *XZ         *YZ         *ZZ
   *=X    79.38749    40.56207    -0.25315    -0.08899    -0.04342   -28.91689
   *=Y    39.81817    -0.69177   -14.87474    -0.04525    -0.14515     1.49286
   *=Z    -0.00007    -0.00002    -0.00000   -29.16141     1.68434    -0.00767


 AVERAGE BETAX(SHG) VALUE AT   0.50000 EV =         29.8572 a.u. =  0.257949E-30 ESU
 AVERAGE BETAY(SHG) VALUE AT   0.50000 EV =         16.2359 a.u. =  0.140269E-30 ESU
 AVERAGE BETAZ(SHG) VALUE AT   0.50000 EV =         -0.0983 a.u. = -0.849034E-33 ESU



 AVERAGE BETA (SHG) VALUE AT   0.50000 EV =         33.9863 a.u. =  0.293622E-30 ESU
   (1 a.u. = 8.639418X10-33 esu)



 +++++ ALPHA AT       1.50000 EV.

                           COMPONENTS OF ALPHA

                     *X           *Y           *Z
           *=X:      73.5162       3.9833       0.0019
           *=Y:       3.9748      49.8936       0.0076
           *=Z:       0.0001      -0.0000      34.7753

  ISOTROPIC AVERAGE ALPHA =      52.72833 A.U. =      7.81353 ANG.**3


 GAMMA (THIRD HARMONIC GENERATION) AT    0.50000 EV.


 GAMMA(X,X,X,X) =         10192.12884
 GAMMA(Y,Y,Y,Y) =          1423.22395
 GAMMA(Z,Z,Z,Z) =            73.64829
 GAMMA(X,X,Y,Y) =          2207.91075
 GAMMA(X,X,Z,Z) =           688.25401
 GAMMA(Y,Y,X,X) =          2301.73065
 GAMMA(Y,Y,Z,Z) =           143.23802
 GAMMA(Z,Z,X,X) =           637.53926
 GAMMA(Z,Z,Y,Y) =           136.42285


 AVERAGE GAMMA VALUE AT    0.50000 =          3560.81933 a.u. =         1793.47879 ESU (X10-39)


 ******************** FINITE-FIELD POLARIZABILITIES ********************

    THE F-F METHOD IS PERFORMED USING BOTH AN ENERGY
    AND DIPOLE MOMENT EXPANSION.  THESE RESULTS ARE
    LISTED BELOW AS "H.o.F." AND "Dipole", RESPECTIVELY.

          MOLECULAR WEIGHT =   73.11



          ROTATIONAL CONSTANTS IN CM(-1)

          A =    0.55671762   B =    0.13423830   C =    0.11042031



           PRINCIPAL MOMENTS OF INERTIA IN UNITS OF 10**(-40)*GRAM-CM**2

          A =       50.2818   B =      208.5303   C =      253.5109


 ROTATION MATRIX FOR ORIENTATION OF MOLECULE:

         0.811705   -0.584067    0.000000
         0.584067    0.811705   -0.000000
        -0.000000    0.000000    1.000000


          CARTESIAN COORDINATES 

    NO.       ATOM         X         Y         Z

     1         C       -1.0171   -0.0078    0.0000
     2         N       -2.1111   -0.3771   -0.0000
     3         S        0.5579    0.6159    0.0000
     4         C        1.5426   -0.8927   -0.0000
     5         H        2.6031   -0.5992    0.0000
     6         H        1.3636   -1.5101    0.8899
     7         H        1.3636   -1.5101   -0.8899


 ENERGY OF "REORIENTED" SYSTEM WITHOUT FIELD:       34.20127 Kcal/mol


 APPLIED ELECTRIC FIELD MAGNITUDE:         0.10284 VOLTS PER ANGSTROM
    Step  1 of 36 done (+X)
    Step  2 of 36 done (-X)
    Step  3 of 36 done (+2X)
    Step  4 of 36 done (-2X)
    Step  5 of 36 done (+Y)
    Step  6 of 36 done (-Y)
    Step  7 of 36 done (+2Y)
    Step  8 of 36 done (-2Y)
    Step  9 of 36 done (+Y+X)
    Step 10 of 36 done (+Y-X)
    Step 11 of 36 done (-Y-X)
    Step 12 of 36 done (-Y+X)
    Step 13 of 36 done (+2Y+2X)
    Step 14 of 36 done (+2Y-2X)
    Step 15 of 36 done (-2Y-2X)
    Step 16 of 36 done (-2Y+2X)
    Step 17 of 36 done (+Z)
    Step 18 of 36 done (-Z)
    Step 19 of 36 done (+2Z)
    Step 20 of 36 done (-2Z)
    Step 21 of 36 done (+Z+X)
    Step 22 of 36 done (+Z-X)
    Step 23 of 36 done (-Z-X)
    Step 24 of 36 done (-Z+X)
    Step 25 of 36 done (+2Z+2X)
    Step 26 of 36 done (+2Z-2X)
    Step 27 of 36 done (-2Z-2X)
    Step 28 of 36 done (-2Z+2X)
    Step 29 of 36 done (+Z+Y)
    Step 30 of 36 done (+Z-Y)
    Step 31 of 36 done (-Z-Y)
    Step 32 of 36 done (-Z+Y)
    Step 33 of 36 done (+2Z+2Y)
    Step 34 of 36 done (+2Z-2Y)
    Step 35 of 36 done (-2Z-2Y)
    Step 36 of 36 done (-2Z+2Y)


 ****************************** DIPOLE ******************************


                     H.o.F.         Dipole

     X             -1.335700      -1.335669
     Y              0.401178       0.401180
     X              0.000000       0.000026


 MAGNITUDE:         1.394646       1.394617  (A.U.)
                    3.544837       3.544764  (DEBYE)


 ****************************** POLARIZABILITY ********************



 Polarizability Tensor from Heat of Formation:


                     1          2          3
 ------------------------------------------
          1  71.823822
          2   2.584338  48.499858
          3  -0.000306  -0.000112  34.512535




    ROOT NO.    1           2           3

            34.51254    48.21694    72.10674
  
         1   0.00001    -0.10882    -0.99406
         2   0.00001     0.99406    -0.10882
         3   1.00000    -0.00001     0.00001

 Polarizability Tensor from Dipole Moment:


                     1          2          3
 ------------------------------------------
          1  71.809795
          2   2.577671  48.494213
          3   0.002677  -0.003058  34.505752




    ROOT NO.    1           2           3

            34.50575    48.21264    72.09137
  
         1  -0.00009    -0.10859    -0.99409
         2   0.00023     0.99409    -0.10859
         3   1.00000    -0.00024    -0.00006


 Average Polarizability from:     H.o.F         Dipole
                               51.612072      51.603253  A.U.
                                7.647877       7.646570  ANG.**3
                            1.529534D-23   1.529273D-23  ESU
 *******************************************************************************
 **                                                                           **
 **                              MOPAC v22.1.1                                **
 **                                                                           **
 *******************************************************************************
 **          Digital Object Identifier (DOI): 10.5281/zenodo.6511958          **
 **    Visit the DOI location for information on how to cite this program.    **
 *******************************************************************************

                              PM6 CALCULATION RESULTS

 *******************************************************************************
 *  CALCULATION DONE:                                Tue May  7 17:21:17 2024  *
 *  PM6        - The PM6 Hamiltonian to be used
 *  OLDGEO     - PREVIOUS GEOMETRY TO BE USED
 *  FORCE      - FORCE CALCULATION SPECIFIED
 *  T=         - A TIME OF 172800.0 SECONDS REQUESTED
 *  DUMP=N     - RESTART FILE WRITTEN EVERY 7200.0 SECONDS REQUESTED
 *  THERMO     - THERMODYNAMIC QUANTITIES TO BE CALCULATED
 *******************************************************************************
PM6 OLDGEO FORCE THERMO
 mescn
 All coordinates are Cartesian
   ATOM   CHEMICAL          X               Y               Z
  NUMBER   SYMBOL      (ANGSTROMS)     (ANGSTROMS)     (ANGSTROMS)
 
     1       C         -1.63173014  *   0.60376750  *  -0.00000001  *
     2       N         -2.72574776  *   0.23445591  *  -0.00000001  *
     3       S         -0.05678751  *   1.22748005  *  -0.00000001  *
     4       C          0.92789231  *  -0.28110902  *  -0.00000001  *
     5       H          1.98844487  *   0.01235796  *   0.00000000  *
     6       H          0.74896412  *  -0.89847621  *   0.88986172  *
     7       H          0.74896412  *  -0.89847620  *  -0.88986169  *
 


          CARTESIAN COORDINATES 

    NO.       ATOM           X           Y           Z

     1         C         -1.6317      0.6038     -0.0000
     2         N         -2.7257      0.2345     -0.0000
     3         S         -0.0568      1.2275     -0.0000
     4         C          0.9279     -0.2811     -0.0000
     5         H          1.9884      0.0124      0.0000
     6         H          0.7490     -0.8985      0.8899
     7         H          0.7490     -0.8985     -0.8899

 General Reference for PM6:
 "Optimization of Parameters for Semiempirical Methods V: Modification of NDDO Approximations
 and Application to 70 Elements", J. J. P. Stewart, J. Mol. Mod., 13, 1173-1213 (2007)
 URL: https://link.springer.com/article/10.1007/s00894-007-0233-4

           Empirical Formula: C2 H3 N S  =     7 atoms



      MOLECULAR POINT GROUP   :   Cs  


      RHF CALCULATION, NO. OF DOUBLY OCCUPIED LEVELS = 11



          HEAT OF FORMATION =      34.201272 KCALS/MOLE


          CARTESIAN COORDINATE DERIVATIVES

   NUMBER  ATOM         X            Y            Z

     1       C      0.003045    -0.004560    -0.000000
     2       N      0.002737     0.000106     0.000000
     3       S      0.000237     0.004467    -0.000000
     4       C     -0.002572     0.002357     0.000022
     5       H      0.000127    -0.013876     0.000001
     6       H     -0.001782     0.005746    -0.004898
     7       H     -0.001792     0.005759     0.004876
 


          GRADIENT NORM =   0.01956

          MOLECULAR WEIGHT =   73.11



          ROTATIONAL CONSTANTS IN CM(-1)

          A =    0.55671762   B =    0.13423830   C =    0.11042031



           PRINCIPAL MOMENTS OF INERTIA IN UNITS OF 10**(-40)*GRAM-CM**2

          A =       50.2818   B =      208.5303   C =      253.5109


          ORIENTATION OF MOLECULE IN FORCE CALCULATION

    NO.       ATOM         X         Y         Z

     1          C       0.9661    0.3179    0.0000
     2          N       2.1208    0.3179    0.0000
     3          S      -0.7256    0.4051    0.0000
     4          C      -1.1760   -1.3392    0.0000
     5          H      -2.2747   -1.4003    0.0000
     6          H      -0.8090   -1.8669   -0.8899
     7          H      -0.8090   -1.8669    0.8899


    FIRST DERIVATIVES WILL BE USED IN THE CALCULATION OF SECOND DERIVATIVES

          ESTIMATED TIME TO COMPLETE CALCULATION =        0.33 SECONDS

    FOR POINT-GROUP Cs   THERE ARE   2 UNIQUE SYMMETRY FUNCTIONS.

 STEP:   1 TIME =     0.02 SECS, INTEGRAL =      0.02 TIME LEFT: 172799.98
 STEP:   2 TIME =     0.02 SECS, INTEGRAL =      0.03 TIME LEFT: 172799.96
 STEP:   3 TIME =     0.02 SECS, INTEGRAL =      0.05 TIME LEFT: 172799.95
 STEP:   4 TIME =     0.02 SECS, INTEGRAL =      0.06 TIME LEFT: 172799.93
 STEP:   5 TIME =     0.02 SECS, INTEGRAL =      0.08 TIME LEFT: 172799.91
 STEP:   6 TIME =     0.01 SECS, INTEGRAL =      0.09 TIME LEFT: 172799.90
 STEP:   7 TIME =     0.02 SECS, INTEGRAL =      0.11 TIME LEFT: 172799.89
 STEP:   8 TIME =     0.02 SECS, INTEGRAL =      0.12 TIME LEFT: 172799.87
 STEP:   9 TIME =     0.01 SECS, INTEGRAL =      0.13 TIME LEFT: 172799.86
 STEP:  10 TIME =     0.02 SECS, INTEGRAL =      0.15 TIME LEFT: 172799.84
 STEP:  11 TIME =     0.01 SECS, INTEGRAL =      0.16 TIME LEFT: 172799.83
 STEP:  12 TIME =     0.02 SECS, INTEGRAL =      0.18 TIME LEFT: 172799.82
 STEP:  13 TIME =     0.02 SECS, INTEGRAL =      0.19 TIME LEFT: 172799.80
 STEP:  14 TIME =     0.01 SECS, INTEGRAL =      0.20 TIME LEFT: 172799.79
 STEP:  15 TIME =     0.02 SECS, INTEGRAL =      0.22 TIME LEFT: 172799.77
 STEP:  16 TIME =     0.01 SECS, INTEGRAL =      0.23 TIME LEFT: 172799.76
 STEP:  17 TIME =     0.02 SECS, INTEGRAL =      0.25 TIME LEFT: 172799.75
 STEP:  18 TIME =     0.01 SECS, INTEGRAL =      0.26 TIME LEFT: 172799.73
 STEP:  19                       INTEGRAL =      0.26 TIME LEFT: 172799.73
 STEP:  20                       INTEGRAL =      0.26 TIME LEFT: 172799.73
 STEP:  21                       INTEGRAL =      0.26 TIME LEFT: 172799.73

(To convert to Hartree/Bohr^2, multiply by (10^(-21) x N x a0^2)/(4.184 x 627.51) =  0.0642)


           FORCE MATRIX IN MILLIDYNES/ANGSTROM


                  C  1       N  2       S  3       C  4       H  5       H  6
 ------------------------------------------------------------------------------
     C    1  22.151826
     N    2  18.862455  19.920185
     S    3   3.205220   1.125543   6.140429
     C    4   0.528823   0.072741   2.304075   9.562989
     H    5   0.089089   0.016221   0.551182   3.481475   4.148672
     H    6   0.025785   0.011207   0.591179   3.504693   0.427182   4.162826
     H    7   0.026191   0.011395   0.590415   3.505947   0.427000   0.429619


                  H  7
 ------------------
     H    7   4.162826


          HEAT OF FORMATION =      34.201272 KCALS/MOLE

          ZERO POINT ENERGY      26.583 KCAL/MOL


           NORMAL COORDINATE ANALYSIS (Total motion = 1 Angstrom)


   Root No.       1         2         3         4         5         6         7         8

                 1 A"      1 A'      2 A"      2 A'      3 A'      4 A'      3 A"      5 A'  

                  96.3     174.6     404.9     484.3     693.0     756.6     914.9     938.4
  
           1    0.0000   -0.0373    0.0000    0.0382   -0.1686    0.0305   -0.0000    0.0083
           2   -0.0000    0.0289   -0.0000    0.3015    0.0349   -0.0007    0.0000   -0.0204
           3    0.0035    0.0000    0.5350    0.0000    0.0000    0.0000   -0.0012    0.0000
           4    0.0000   -0.0379   -0.0000    0.0407   -0.1903    0.0339   -0.0000    0.0102
           5    0.0000   -0.1219    0.0000   -0.1090   -0.0092   -0.0051   -0.0000    0.0045
           6    0.0235   -0.0000   -0.2717   -0.0000   -0.0000    0.0000    0.0000    0.0000
           7    0.0000   -0.0389   -0.0000    0.0001    0.1311   -0.0616    0.0000   -0.0221
           8   -0.0000    0.0466    0.0000   -0.0466   -0.0356   -0.1138    0.0000    0.0160
           9   -0.0155    0.0000   -0.0775   -0.0000   -0.0000   -0.0000   -0.0136    0.0000
          10   -0.0000    0.1383    0.0000   -0.0569    0.0500    0.0894   -0.0000    0.0641
          11   -0.0000   -0.0057    0.0000   -0.0453    0.0526    0.2673   -0.0000   -0.0357
          12    0.0061    0.0000   -0.0120   -0.0000   -0.0000    0.0000    0.0698   -0.0000
          13   -0.0000    0.1484    0.0000   -0.0739    0.0253    0.0580   -0.0000    0.0139
          14   -0.0000   -0.1436   -0.0000    0.1173    0.2776    0.2331   -0.0000    0.4164
          15    0.3364    0.0000    0.0379    0.0000    0.0000    0.0000   -0.1272    0.0000
          16   -0.2641    0.2060   -0.0261   -0.1353   -0.0685    0.0001    0.1013   -0.1579
          17    0.0669    0.0394   -0.0132   -0.0871   -0.0308    0.1414    0.3586   -0.1599
          18   -0.1425    0.0005   -0.0153   -0.0027    0.0011    0.0112   -0.1282   -0.0019
          19    0.2641    0.2060    0.0261   -0.1353   -0.0685    0.0001   -0.1013   -0.1579
          20   -0.0669    0.0394    0.0132   -0.0871   -0.0308    0.1414   -0.3586   -0.1599
          21   -0.1425   -0.0005   -0.0153    0.0027   -0.0011   -0.0112   -0.1282    0.0019


   Root No.       9        10        11        12        13        14        15

                 4 A"      6 A'      7 A'      8 A'      9 A'      5 A"     10 A'  

                1217.0    1230.7    1274.8    2294.3    2672.5    2675.0    2768.0
  
           1    0.0000    0.0002    0.0006    0.5337    0.0007    0.0000    0.0000
           2   -0.0000    0.0003   -0.0006   -0.0007    0.0002   -0.0000    0.0001
           3   -0.0009   -0.0000   -0.0000   -0.0000    0.0000    0.0000    0.0000
           4    0.0000    0.0007    0.0007   -0.4270   -0.0004   -0.0000    0.0001
           5   -0.0000   -0.0001   -0.0000    0.0004   -0.0000   -0.0000   -0.0000
           6    0.0001   -0.0000   -0.0000    0.0000   -0.0000   -0.0000    0.0000
           7   -0.0000   -0.0010   -0.0024   -0.0123   -0.0007   -0.0000   -0.0006
           8    0.0000   -0.0011   -0.0075    0.0012   -0.0000    0.0000   -0.0017
           9   -0.0005    0.0000   -0.0000    0.0000    0.0000   -0.0007   -0.0000
          10   -0.0000   -0.0428   -0.0135   -0.0019   -0.0482   -0.0000   -0.0068
          11    0.0000    0.0093   -0.0494   -0.0029    0.0151    0.0000   -0.0226
          12   -0.0411   -0.0000    0.0000    0.0000    0.0000   -0.0564    0.0000
          13    0.0000   -0.0334   -0.0287   -0.0112    0.4770    0.0000    0.3192
          14   -0.0000    0.1976    0.2839   -0.0031    0.0432    0.0000    0.0158
          15    0.4217   -0.0000    0.0000    0.0000    0.0000   -0.0267   -0.0000
          16    0.2551    0.2809    0.1243   -0.0002    0.0585   -0.1592   -0.1117
          17    0.0668   -0.1380    0.2750   -0.0002   -0.1122    0.2340    0.1540
          18    0.0467    0.2096   -0.1258    0.0059   -0.1973    0.3602    0.2665
          19   -0.2551    0.2809    0.1243   -0.0002    0.0585    0.1592   -0.1117
          20   -0.0668   -0.1380    0.2750   -0.0002   -0.1122   -0.2340    0.1540
          21    0.0467   -0.2096    0.1258   -0.0059    0.1973    0.3602   -0.2665


           MASS-WEIGHTED COORDINATE ANALYSIS (NORMAL COORDINATES)


   Root No.       1         2         3         4         5         6         7         8

                 1 A"      1 A'      2 A"      2 A'      3 A'      4 A'      3 A"      5 A'  

                  96.3     174.6     404.9     484.3     693.0     756.6     914.9     938.4
  
           1    0.0000   -0.1506    0.0000    0.1080   -0.4607    0.0831   -0.0000    0.0472
           2   -0.0000    0.1169   -0.0000    0.8521    0.0953   -0.0020    0.0000   -0.1157
           3    0.0214    0.0000    0.8580    0.0000    0.0000    0.0000   -0.0069    0.0000
           4    0.0000   -0.1656   -0.0000    0.1242   -0.5615    0.0997   -0.0000    0.0627
           5    0.0000   -0.5323    0.0000   -0.3327   -0.0271   -0.0151   -0.0000    0.0274
           6    0.1553   -0.0000   -0.4706   -0.0000   -0.0000    0.0000    0.0002    0.0000
           7    0.0000   -0.2568   -0.0000    0.0003    0.5852   -0.2741    0.0000   -0.2049
           8   -0.0000    0.3078    0.0000   -0.2150   -0.1587   -0.5068    0.0000    0.1487
           9   -0.1549    0.0000   -0.2030   -0.0000   -0.0000   -0.0000   -0.1231    0.0000
          10   -0.0000    0.5590   -0.0000   -0.1608    0.1366    0.2437   -0.0000    0.3637
          11   -0.0000   -0.0230    0.0000   -0.1281    0.1438    0.7283   -0.0000   -0.2028
          12    0.0375    0.0000   -0.0192   -0.0000   -0.0000    0.0000    0.3856   -0.0000
          13   -0.0000    0.1737    0.0000   -0.0605    0.0200    0.0458   -0.0000    0.0228
          14   -0.0000   -0.1682   -0.0000    0.0960    0.2197    0.1840   -0.0000    0.6846
          15    0.5964    0.0000    0.0176    0.0000    0.0000    0.0000   -0.2035    0.0000
          16   -0.4683    0.2413   -0.0121   -0.1108   -0.0542    0.0001    0.1621   -0.2596
          17    0.1187    0.0461   -0.0061   -0.0713   -0.0243    0.1116    0.5736   -0.2629
          18   -0.2527    0.0006   -0.0071   -0.0022    0.0009    0.0088   -0.2050   -0.0031
          19    0.4683    0.2413    0.0121   -0.1108   -0.0542    0.0001   -0.1621   -0.2596
          20   -0.1187    0.0461    0.0061   -0.0713   -0.0243    0.1116   -0.5736   -0.2629
          21   -0.2527   -0.0006   -0.0071    0.0022   -0.0009   -0.0088   -0.2050    0.0031


   Root No.       9        10        11        12        13        14        15

                 4 A"      6 A'      7 A'      8 A'      9 A'      5 A"     10 A'  

                1217.0    1230.7    1274.8    2294.3    2672.5    2675.0    2768.0
  
           1    0.0000    0.0010    0.0035    0.7563    0.0041    0.0000    0.0002
           2   -0.0000    0.0020   -0.0036   -0.0010    0.0011   -0.0000    0.0005
           3   -0.0056   -0.0000   -0.0000   -0.0000    0.0000    0.0001    0.0000
           4    0.0000    0.0045    0.0046   -0.6535   -0.0024   -0.0000    0.0008
           5   -0.0000   -0.0004   -0.0003    0.0007   -0.0001   -0.0000   -0.0002
           6    0.0009   -0.0000   -0.0000    0.0000   -0.0000   -0.0001    0.0000
           7   -0.0000   -0.0092   -0.0235   -0.0284   -0.0067   -0.0000   -0.0055
           8    0.0000   -0.0106   -0.0734    0.0029   -0.0003    0.0000   -0.0172
           9   -0.0049    0.0000   -0.0000    0.0000    0.0000   -0.0057   -0.0000
          10   -0.0000   -0.2507   -0.0812   -0.0027   -0.2736   -0.0000   -0.0410
          11    0.0000    0.0543   -0.2976   -0.0041    0.0858    0.0000   -0.1371
          12   -0.2427   -0.0000    0.0000    0.0000    0.0000   -0.2875    0.0000
          13    0.0000   -0.0567   -0.0500   -0.0046    0.7846    0.0000    0.5614
          14   -0.0000    0.3355    0.4954   -0.0013    0.0711    0.0000    0.0278
          15    0.7218   -0.0000    0.0000    0.0000   -0.0000   -0.0394   -0.0000
          16    0.4366    0.4770    0.2169   -0.0001    0.0962   -0.2352   -0.1964
          17    0.1143   -0.2344    0.4798   -0.0001   -0.1845    0.3457    0.2708
          18    0.0799    0.3559   -0.2195    0.0024   -0.3244    0.5320    0.4688
          19   -0.4366    0.4770    0.2169   -0.0001    0.0962    0.2352   -0.1964
          20   -0.1143   -0.2344    0.4798   -0.0001   -0.1845   -0.3457    0.2708
          21    0.0799   -0.3559    0.2195   -0.0024    0.3244    0.5320   -0.4688


          DESCRIPTION OF VIBRATIONS


 VIBRATION          1    1A"         ATOM PAIR     ENERGY CONTRIBUTION    RADIAL
 FREQUENCY            96.27         C 4 -- H 5         +34.8% (551.7%)      0.0%
 TRANSITION DIPOLE   0.0113         C 4 -- H 6         +32.4% (532.1%)      0.1%
 TRAVEL (Ang.)       0.0000         C 4 -- H 7         +32.4% (532.1%)      0.1%
 REDUCED MASS        0.3321         S 3 -- C 4          +0.2% ( 45.4%)      0.0%
 EFFECTIVE MASS      3.1938
 FORCE CONSTANT      0.0018

 VIBRATION          2    1A'         ATOM PAIR     ENERGY CONTRIBUTION    RADIAL
 FREQUENCY           174.62         S 3 -- C 4         +29.4% (319.5%)      1.7%
 TRANSITION DIPOLE   0.3460         C 4 -- H 7         +22.2% (277.5%)     18.5%
 TRAVEL (Ang.)       0.3378         C 4 -- H 6         +22.2% (277.5%)     18.5%
 REDUCED MASS        3.3842         C 4 -- H 5         +15.3% (230.6%)     91.0%
 EFFECTIVE MASS     76.6483
 FORCE CONSTANT      0.0608

 VIBRATION          3    2A"         ATOM PAIR     ENERGY CONTRIBUTION    RADIAL
 FREQUENCY           404.86         C 1 -- N 2         +59.6% ( 95.8%)      0.0%
 TRANSITION DIPOLE   0.4629         C 1 -- S 3         +39.4% ( 77.9%)      0.0%
 TRAVEL (Ang.)       0.1516         S 3 -- C 4          +0.4% (  7.5%)      0.0%
 REDUCED MASS        7.2514         C 4 -- H 5          +0.3% (  6.6%)      0.0%
 EFFECTIVE MASS     13.1252
 FORCE CONSTANT      0.7003

 VIBRATION          4    2A'         ATOM PAIR     ENERGY CONTRIBUTION    RADIAL
 FREQUENCY           484.30         C 1 -- S 3         +38.7% ( 92.9%)      0.2%
 TRANSITION DIPOLE   0.1658         C 1 -- N 2         +35.5% ( 88.9%)      0.0%
 TRAVEL (Ang.)       0.1426         C 4 -- H 7          +6.8% ( 38.8%)      1.3%
 REDUCED MASS        6.8513         C 4 -- H 6          +6.8% ( 38.8%)      1.3%
 EFFECTIVE MASS     13.8577
 FORCE CONSTANT      0.9468

 VIBRATION          5    3A'         ATOM PAIR     ENERGY CONTRIBUTION    RADIAL
 FREQUENCY           692.98         C 1 -- S 3         +69.7% (137.5%)     96.6%
 TRANSITION DIPOLE   0.1456         C 1 -- N 2         +11.6% ( 56.1%)     40.4%
 TRAVEL (Ang.)       0.1239         S 3 -- C 4          +8.8% ( 48.8%)     11.2%
 REDUCED MASS        6.3406         C 4 -- H 5          +4.4% ( 34.4%)     65.1%
 EFFECTIVE MASS     19.4188
 FORCE CONSTANT      1.7940

 VIBRATION          6    4A'         ATOM PAIR     ENERGY CONTRIBUTION    RADIAL
 FREQUENCY           756.56         S 3 -- C 4         +35.1% (105.0%)     97.9%
 TRANSITION DIPOLE   0.5398         C 4 -- H 6         +19.7% ( 78.6%)      9.8%
 TRAVEL (Ang.)       0.1075         C 4 -- H 7         +19.7% ( 78.6%)      9.8%
 REDUCED MASS        7.7167         C 4 -- H 5         +19.3% ( 77.9%)     15.5%
 EFFECTIVE MASS     17.6079
 FORCE CONSTANT      2.6024

 VIBRATION          7    3A"         ATOM PAIR     ENERGY CONTRIBUTION    RADIAL
 FREQUENCY           914.95         C 4 -- H 6         +38.9% ( 81.3%)      9.4%
 TRANSITION DIPOLE   0.4039         C 4 -- H 7         +38.9% ( 81.3%)      9.4%
 TRAVEL (Ang.)       0.3526         C 4 -- H 5         +13.5% ( 47.9%)      0.0%
 REDUCED MASS        0.5930         S 3 -- C 4          +8.6% ( 38.2%)      0.0%
 EFFECTIVE MASS      2.7929
 FORCE CONSTANT      0.2925

 VIBRATION          8    5A'         ATOM PAIR     ENERGY CONTRIBUTION    RADIAL
 FREQUENCY           938.35         C 4 -- H 5         +44.7% ( 86.5%)      9.4%
 TRANSITION DIPOLE   0.5692         C 4 -- H 7         +20.3% ( 58.3%)      8.0%
 TRAVEL (Ang.)       0.3084         C 4 -- H 6         +20.3% ( 58.3%)      8.0%
 REDUCED MASS        0.7555         S 3 -- C 4         +12.0% ( 44.9%)      8.8%
 EFFECTIVE MASS      4.3900
 FORCE CONSTANT      0.3919

 VIBRATION          9    4A"         ATOM PAIR     ENERGY CONTRIBUTION    RADIAL
 FREQUENCY          1216.96         C 4 -- H 5         +51.3% ( 61.5%)      0.0%
 TRANSITION DIPOLE   0.6131         C 4 -- H 6         +22.2% ( 40.5%)      9.4%
 TRAVEL (Ang.)       0.3703         C 4 -- H 7         +22.2% ( 40.5%)      9.4%
 REDUCED MASS        0.4041         S 3 -- C 4          +4.3% ( 17.9%)      0.0%
 EFFECTIVE MASS      1.4926
 FORCE CONSTANT      0.3526

 VIBRATION         10    6A'         ATOM PAIR     ENERGY CONTRIBUTION    RADIAL
 FREQUENCY          1230.69         C 4 -- H 7         +41.5% ( 56.1%)      1.2%
 TRANSITION DIPOLE   0.6051         C 4 -- H 6         +41.5% ( 56.1%)      1.2%
 TRAVEL (Ang.)       0.3688         C 4 -- H 5         +12.2% ( 30.4%)     37.5%
 REDUCED MASS        0.4029         S 3 -- C 4          +4.8% ( 19.2%)      0.0%
 EFFECTIVE MASS      1.5587
 FORCE CONSTANT      0.3595

 VIBRATION         11    7A'         ATOM PAIR     ENERGY CONTRIBUTION    RADIAL
 FREQUENCY          1274.79         C 4 -- H 7         +34.3% ( 54.2%)      1.2%
 TRANSITION DIPOLE   0.6436         C 4 -- H 6         +34.3% ( 54.2%)      1.2%
 TRAVEL (Ang.)       0.3705         C 4 -- H 5         +27.3% ( 48.4%)      0.9%
 REDUCED MASS        0.3854         S 3 -- C 4          +4.1% ( 18.7%)    100.0%
 EFFECTIVE MASS      1.7304
 FORCE CONSTANT      0.3690

 VIBRATION         12    8A'         ATOM PAIR     ENERGY CONTRIBUTION    RADIAL
 FREQUENCY          2294.27         C 1 -- N 2         +74.5% ( 99.9%)    100.0%
 TRANSITION DIPOLE   2.3725         C 1 -- S 3         +25.5% ( 58.4%)     99.8%
 TRAVEL (Ang.)       0.0673
 REDUCED MASS        6.4852
 EFFECTIVE MASS     12.8576
 FORCE CONSTANT     20.1123

 VIBRATION         13    9A'         ATOM PAIR     ENERGY CONTRIBUTION    RADIAL
 FREQUENCY          2672.50         C 4 -- H 5         +66.2% ( 83.9%)     99.5%
 TRANSITION DIPOLE   0.8454         C 4 -- H 6         +16.4% ( 41.8%)     84.7%
 TRAVEL (Ang.)       0.2216         C 4 -- H 7         +16.4% ( 41.8%)     84.7%
 REDUCED MASS        0.5138         S 3 -- C 4          +0.9% (  9.9%)      0.4%
 EFFECTIVE MASS      1.4740
 FORCE CONSTANT      2.1623

 VIBRATION         14    5A"         ATOM PAIR     ENERGY CONTRIBUTION    RADIAL
 FREQUENCY          2675.03         C 4 -- H 7         +49.2% ( 72.3%)     97.6%
 TRANSITION DIPOLE   0.8322         C 4 -- H 6         +49.2% ( 72.3%)     97.6%
 TRAVEL (Ang.)       0.2235         S 3 -- C 4          +0.9% (  9.6%)      0.0%
 REDUCED MASS        0.5047         C 4 -- H 5          +0.8% (  9.3%)      0.0%
 EFFECTIVE MASS      1.4729
 FORCE CONSTANT      2.1278

 VIBRATION         15   10A'         ATOM PAIR     ENERGY CONTRIBUTION    RADIAL
 FREQUENCY          2768.04         C 4 -- H 7         +33.8% ( 55.9%)     96.1%
 TRANSITION DIPOLE   0.7503         C 4 -- H 6         +33.8% ( 55.9%)     96.1%
 TRAVEL (Ang.)       0.2728         C 4 -- H 5         +32.1% ( 54.4%)     95.6%
 REDUCED MASS        0.3273         S 3 -- C 4          +0.2% (  4.1%)     99.9%
 EFFECTIVE MASS      1.1219
 FORCE CONSTANT      1.4777

      SYMMETRY NUMBER FOR POINT-GROUP Cs  =  1


          SYSTEM IS A GROUND STATE


 All coordinates are Cartesian
 mescn


          MOLECULE IS NOT LINEAR

          THERE ARE 15 GENUINE VIBRATIONS IN THIS SYSTEM
          THIS THERMODYNAMICS CALCULATION IS LIMITED TO
          MOLECULES WHICH HAVE NO INTERNAL ROTATIONS




                    CALCULATED THERMODYNAMIC PROPERTIES
                                          *
   TEMP. (K)   PARTITION FUNCTION   H.O.F.    ENTHALPY  HEAT CAPACITY ENTROPY
                                   KCAL/MOL   CAL/MOLE    CAL/K/MOL  CAL/K/MOL


 298.00  VIB.     0.6680D+01                  1399.3008     9.6092     8.4697
         ROT.     0.5816D+05                   888.2803     2.9808    24.7824
         INT.     0.3885D+06                  2287.5811    12.5900    33.2520
         TRA.     0.6044D+27                  1480.4672     4.9680    38.7823
         TOT.                       34.201    3768.0483    17.5580    72.0343

 200.00  VIB.     0.3096D+01                   615.9149     6.3559     5.3251
         ROT.     0.3198D+05                   596.1613     2.9808    23.5937
         INT.     0.9899D+05                  1212.0761     9.3367    28.9188
         TRA.     0.3323D+27                   993.6021     4.9680    36.8011
         TOT.                       32.639    2205.6783    14.3047    65.7199

 210.00  VIB.     0.3346D+01                   681.1415     6.6898     5.6433
         ROT.     0.3441D+05                   625.9693     2.9808    23.7391
         INT.     0.1151D+06                  1307.1109     9.6706    29.3824
         TRA.     0.3575D+27                  1043.2822     4.9680    37.0435
         TOT.                       32.784    2350.3931    14.6386    66.4259

 220.00  VIB.     0.3616D+01                   749.7161     7.0253     5.9623
         ROT.     0.3689D+05                   655.7774     2.9808    23.8778
         INT.     0.1334D+06                  1405.4935    10.0061    29.8400
         TRA.     0.3834D+27                  1092.9623     4.9680    37.2746
         TOT.                       32.932    2498.4558    14.9741    67.1147

 230.00  VIB.     0.3910D+01                   821.6499     7.3615     6.2820
         ROT.     0.3944D+05                   685.5855     2.9808    24.0103
         INT.     0.1542D+06                  1507.2354    10.3423    30.2922
         TRA.     0.4098D+27                  1142.6424     4.9680    37.4955
         TOT.                       33.083    2649.8778    15.3103    67.7877

 240.00  VIB.     0.4228D+01                   896.9464     7.6977     6.6024
         ROT.     0.4204D+05                   715.3935     2.9808    24.1371
         INT.     0.1777D+06                  1612.3399    10.6785    30.7395
         TRA.     0.4368D+27                  1192.3226     4.9680    37.7069
         TOT.                       33.238    2804.6625    15.6465    68.4464

 250.00  VIB.     0.4573D+01                   975.6011     8.0330     6.9234
         ROT.     0.4469D+05                   745.2016     2.9808    24.2588
         INT.     0.2044D+06                  1720.8027    11.0138    31.1822
         TRA.     0.4644D+27                  1242.0027     4.9680    37.9097
         TOT.                       33.396    2962.8053    15.9819    69.0919

 260.00  VIB.     0.4947D+01                  1057.6018     8.3668     7.2450
         ROT.     0.4740D+05                   775.0097     2.9808    24.3757
         INT.     0.2345D+06                  1832.6115    11.3476    31.6207
         TRA.     0.4925D+27                  1291.6828     4.9680    38.1046
         TOT.                       33.558    3124.2943    16.3156    69.7253

 270.00  VIB.     0.5353D+01                  1142.9294     8.6983     7.5670
         ROT.     0.5016D+05                   804.8177     2.9808    24.4882
         INT.     0.2685D+06                  1947.7471    11.6791    32.0552
         TRA.     0.5212D+27                  1341.3629     4.9680    38.2921
         TOT.                       33.722    3289.1100    16.6471    70.3473

 280.00  VIB.     0.5793D+01                  1231.5576     9.0268     7.8893
         ROT.     0.5297D+05                   834.6258     2.9808    24.5966
         INT.     0.3069D+06                  2066.1834    12.0077    32.4859
         TRA.     0.5505D+27                  1391.0430     4.9680    38.4727
         TOT.                       33.890    3457.2264    16.9757    70.9586

 290.00  VIB.     0.6270D+01                  1323.4547     9.3519     8.2117
         ROT.     0.5583D+05                   864.4339     2.9808    24.7012
         INT.     0.3501D+06                  2187.8885    12.3327    32.9129
         TRA.     0.5802D+27                  1440.7231     4.9680    38.6471
         TOT.                       34.062    3628.6116    17.3008    71.5600

 300.00  VIB.     0.6787D+01                  1418.5831     9.6730     8.5342
         ROT.     0.5875D+05                   894.2419     2.9808    24.8023
         INT.     0.3987D+06                  2312.8250    12.6538    33.3365
         TRA.     0.6105D+27                  1490.4032     4.9680    38.8155
         TOT.                       34.236    3803.2282    17.6219    72.1519

 310.00  VIB.     0.7348D+01                  1516.9008     9.9897     8.8565
         ROT.     0.6171D+05                   924.0500     2.9808    24.9000
         INT.     0.4534D+06                  2440.9508    12.9705    33.7566
         TRA.     0.6413D+27                  1540.0833     4.9680    38.9784
         TOT.                       34.414    3981.0341    17.9386    72.7349

 320.00  VIB.     0.7956D+01                  1618.3618    10.3017     9.1786
         ROT.     0.6472D+05                   953.8580     2.9808    24.9947
         INT.     0.5149D+06                  2572.2199    13.2825    34.1733
         TRA.     0.6725D+27                  1589.7634     4.9680    39.1361
         TOT.                       34.595    4161.9833    18.2505    73.3094

 330.00  VIB.     0.8615D+01                  1722.9170    10.6085     9.5003
         ROT.     0.6778D+05                   983.6661     2.9808    25.0864
         INT.     0.5839D+06                  2706.5831    13.5893    34.5867
         TRA.     0.7043D+27                  1639.4435     4.9680    39.2890
         TOT.                       34.779    4346.0266    18.5573    73.8757

 340.00  VIB.     0.9329D+01                  1830.5143    10.9101     9.8215
         ROT.     0.7088D+05                  1013.4742     2.9808    25.1754
         INT.     0.6612D+06                  2843.9885    13.8909    34.9969
         TRA.     0.7366D+27                  1689.1236     4.9680    39.4373
         TOT.                       34.966    4533.1121    18.8589    74.4342

 350.00  VIB.     0.1010D+02                  1941.1000    11.2062    10.1421
         ROT.     0.7403D+05                  1043.2822     2.9808    25.2618
         INT.     0.7479D+06                  2984.3822    14.1870    35.4038
         TRA.     0.7693D+27                  1738.8037     4.9680    39.5813
         TOT.                       35.156    4723.1860    19.1550    74.9852

 360.00  VIB.     0.1094D+02                  2054.6188    11.4967    10.4618
         ROT.     0.7723D+05                  1073.0903     2.9808    25.3458
         INT.     0.8450D+06                  3127.7091    14.4775    35.8076
         TRA.     0.8025D+27                  1788.4838     4.9680    39.7213
         TOT.                       35.349    4916.1929    19.4455    75.5289

 370.00  VIB.     0.1185D+02                  2171.0144    11.7815    10.7807
         ROT.     0.8047D+05                  1102.8984     2.9808    25.4274
         INT.     0.9536D+06                  3273.9128    14.7623    36.2082
         TRA.     0.8362D+27                  1838.1639     4.9680    39.8574
         TOT.                       35.545    5112.0767    19.7303    76.0655

 380.00  VIB.     0.1284D+02                  2290.2303    12.0607    11.0986
         ROT.     0.8375D+05                  1132.7064     2.9808    25.5069
         INT.     0.1075D+07                  3422.9367    15.0415    36.6056
         TRA.     0.8703D+27                  1887.8440     4.9680    39.9899
         TOT.                       35.744    5310.7807    20.0095    76.5954

 390.00  VIB.     0.1390D+02                  2412.2095    12.3342    11.4155
         ROT.     0.8708D+05                  1162.5145     2.9808    25.5843
         INT.     0.1210D+07                  3574.7240    15.3150    36.9998
         TRA.     0.9049D+27                  1937.5242     4.9680    40.1189
         TOT.                       35.945    5512.2482    20.2830    77.1187

 400.00  VIB.     0.1506D+02                  2536.8958    12.6021    11.7311
         ROT.     0.9045D+05                  1192.3226     2.9808    25.6598
         INT.     0.1362D+07                  3729.2183    15.5829    37.3909
         TRA.     0.9399D+27                  1987.2043     4.9680    40.2447
         TOT.                       36.150    5716.4226    20.5509    77.6357

   *: NOTE: HEATS OF FORMATION ARE RELATIVE TO THE
            ELEMENTS IN THEIR STANDARD STATE AT 298K
              (=  Standard Enthalpy of Formation).

            Hvib:  Zero-point energy is not included.
                   frequencies of less than zero cm-1 are not included.
            Hrot = (3/2)RT
            Htra = (3/2)RT + pV = (5/2)RT

            Heat capacity is Cp, not Cv

          For more information, see: HTTP://OpenMOPAC.net/Manual/thermochemistry.html


           FORCE CONSTANT IN CARTESIAN COORDINATES (Millidynes/A)

    ATOM   CHEMICAL       X               Y               Z
   NUMBER   SYMBOL  FORCE CONSTANT  FORCE CONSTANT  FORCE CONSTANT

      1       C       22.095369        1.322961        0.855158
      2       N       19.915821        0.294881        0.299949
      3       S        4.765485        3.845818        0.377432
      4       C        5.862133        4.943896        5.687142
      5       H        4.052092        0.635096        0.487314
      6       H        0.920609        1.473687        2.836601
      7       H        0.920609        1.473687        2.836601

 **********************
 *                    *
 * JOB ENDED NORMALLY *
 *                    *
 **********************



 TOTAL JOB TIME:             0.82 SECONDS

 == MOPAC DONE ==
