 *******************************************************************************
 **                                                                           **
 **                              MOPAC v22.1.1                                **
 **                                                                           **
 *******************************************************************************
 **          Digital Object Identifier (DOI): 10.5281/zenodo.6511958          **
 **    Visit the DOI location for information on how to cite this program.    **
 *******************************************************************************

                              PM6 CALCULATION RESULTS

 *******************************************************************************
 *  CALCULATION DONE:                                Mon Apr 22 11:30:50 2024  *
 *  PM6        - The PM6 Hamiltonian to be used
 *  MMOK       - APPLY MM CORRECTION TO CONH BARRIER
 *  STATIC     - CALCULATE STATIC FIELD POLARIZABILITIES
 *  POLAR      - CALCULATE FIRST, SECOND AND THIRD-ORDER POLARIZABILITIES
 *  PRECISE    - TIGHTER CRITERIA TO BE USED
 *  XYZ        - CARTESIAN COORDINATE SYSTEM TO BE USED
 *  T=         - A TIME OF 172800.0 SECONDS REQUESTED
 *  DUMP=N     - RESTART FILE WRITTEN EVERY 7200.0 SECONDS REQUESTED
 *  CYCLES=    - DO A MAXIMUM OF 8000 STEPS
 *  ENPART     - ENERGY TO BE PARTITIONED INTO COMPONENTS
 *  PRTXYZ     - PRINT CARTESIAN COORDINATES
 *  DISP       - PRINT DISPERSION AND HYDROGEN BOND ENERGIES
 *  BONDS      - FINAL BOND-ORDER MATRIX TO BE PRINTED
 *  LARGE      - EXPANDED OUTPUT TO BE PRINTED
 *  SUPER      - PRINT SUPERDELOCALIZABILITIES
 *  ALLVEC     - PRINT ALL EIGENVECTORS
 *******************************************************************************
PM6 PRECISE POLAR MMOK XYZ ENPART STATIC SUPER BONDS LARGE PRTXYZ DISP ALLVEC CYCLES = 8000
 buscn
 All coordinates are Cartesian
   ATOM   CHEMICAL          X               Y               Z
  NUMBER   SYMBOL      (ANGSTROMS)     (ANGSTROMS)     (ANGSTROMS)
 
     1       C         -0.18000000  *  -1.25200000  *   0.65700000  *
     2       S         -1.54900000  *  -0.72400000  *  -0.49300000  *
     3       C         -1.80800000  *   0.87400000  *   0.01500000  *
     4       N         -2.03500000  *   1.96500000  *   0.33600000  *
     5       H         -0.34900000  *  -2.32800000  *   0.74600000  *
     6       H         -0.38700000  *  -0.79900000  *   1.62700000  *
     7       C          1.23300000  *  -0.95900000  *   0.16100000  *
     8       C          1.62300000  *   0.52100000  *   0.11800000  *
     9       H          1.37100000  *  -1.41000000  *  -0.82800000  *
    10       H          1.91600000  *  -1.49200000  *   0.83700000  *
    11       H          1.45800000  *   0.96900000  *   1.10500000  *
    12       H          0.96500000  *   1.05700000  *  -0.57300000  *
    13       C          3.08000000  *   0.73000000  *  -0.30500000  *
    14       H          3.26400000  *   0.32200000  *  -1.30400000  *
    15       H          3.77000000  *   0.23900000  *   0.38700000  *
    16       H          3.33300000  *   1.79300000  *  -0.33000000  *
    17       C         -1.94400000  *   1.52900000  *   0.20800000  *
 


          CARTESIAN COORDINATES 

    NO.       ATOM           X           Y           Z

     1         C         -0.1800     -1.2520      0.6570
     2         S         -1.5490     -0.7240     -0.4930
     3         C         -1.8080      0.8740      0.0150
     4         N         -2.0350      1.9650      0.3360
     5         H         -0.3490     -2.3280      0.7460
     6         H         -0.3870     -0.7990      1.6270
     7         C          1.2330     -0.9590      0.1610
     8         C          1.6230      0.5210      0.1180
     9         H          1.3710     -1.4100     -0.8280
    10         H          1.9160     -1.4920      0.8370
    11         H          1.4580      0.9690      1.1050
    12         H          0.9650      1.0570     -0.5730
    13         C          3.0800      0.7300     -0.3050
    14         H          3.2640      0.3220     -1.3040
    15         H          3.7700      0.2390      0.3870
    16         H          3.3330      1.7930     -0.3300
    17         C         -1.9440      1.5290      0.2080

 General Reference for PM6:
 "Optimization of Parameters for Semiempirical Methods V: Modification of NDDO Approximations
 and Application to 70 Elements", J. J. P. Stewart, J. Mol. Mod., 13, 1173-1213 (2007)
 URL: https://link.springer.com/article/10.1007/s00894-007-0233-4

           Empirical Formula: C6 H9 N S  =    17 atoms



      MOLECULAR POINT GROUP   :   C1  


      RHF CALCULATION, NO. OF DOUBLY OCCUPIED LEVELS = 22


          Geometry optimization using EF

          DIAGONAL MATRIX USED AS START HESSIAN

 CYCLE:     1 TIME:   0.141 TIME LEFT:  2.00D  GRAD.:629056.801 HEAT:  20612.82
 NUMERICAL PROBLEMS IN BRACKETING LAMBDA   200.000000000214     
  -1000000.00000000        200.000000000014       0.355381168822178     
  1.321623102212786E+029
  GOING FOR FIXED LEVEL SHIFTED NR STEP...
 NUMERICAL PROBLEMS IN BRACKETING LAMBDA   200.000000000214     
  -1000000.00000000        200.000000000014       0.392881168822178     
  1.321623102212786E+029
  GOING FOR FIXED LEVEL SHIFTED NR STEP...
 CYCLE:     2 TIME:   0.047 TIME LEFT:  2.00D  GRAD.:243501.564 HEAT:  10519.89
 CYCLE:     3 TIME:   0.016 TIME LEFT:  2.00D  GRAD.:141359.680 HEAT:  7072.637
 CYCLE:     4 TIME:   0.020 TIME LEFT:  2.00D  GRAD.: 71148.308 HEAT:  4392.580
 CYCLE:     5 TIME:   0.020 TIME LEFT:  2.00D  GRAD.: 35448.280 HEAT:  2721.948
 CYCLE:     6 TIME:   0.020 TIME LEFT:  2.00D  GRAD.:  8824.878 HEAT:  1383.797
 CYCLE:     7 TIME:   0.020 TIME LEFT:  2.00D  GRAD.:  2493.945 HEAT:  414.3561
 CYCLE:     8 TIME:   0.023 TIME LEFT:  2.00D  GRAD.:   828.414 HEAT:  307.1275
 CYCLE:     9 TIME:   0.016 TIME LEFT:  2.00D  GRAD.:   420.234 HEAT:  221.6424
 CYCLE:    10 TIME:   0.020 TIME LEFT:  2.00D  GRAD.:   413.565 HEAT:  202.9215
 CYCLE:    11 TIME:   0.016 TIME LEFT:  2.00D  GRAD.:   188.633 HEAT:  174.7985
 CYCLE:    12 TIME:   0.039 TIME LEFT:  2.00D  GRAD.:   178.211 HEAT:  161.4229
 CYCLE:    13 TIME:   0.016 TIME LEFT:  2.00D  GRAD.:   312.118 HEAT:  161.0222
 CYCLE:    14 TIME:   0.020 TIME LEFT:  2.00D  GRAD.:   246.431 HEAT:  157.0490
 CYCLE:    15 TIME:   0.020 TIME LEFT:  2.00D  GRAD.:   199.348 HEAT:  148.9969
 CYCLE:    16 TIME:   0.020 TIME LEFT:  2.00D  GRAD.:   138.579 HEAT:  145.1603
 CYCLE:    17 TIME:   0.035 TIME LEFT:  2.00D  GRAD.:   115.108 HEAT:  140.8261
 CYCLE:    18 TIME:   0.035 TIME LEFT:  2.00D  GRAD.:    78.904 HEAT:  138.0861
 CYCLE:    19 TIME:   0.035 TIME LEFT:  2.00D  GRAD.:    84.374 HEAT:  137.8380
 CYCLE:    20 TIME:   0.020 TIME LEFT:  2.00D  GRAD.:    71.694 HEAT:  137.2609
 CYCLE:    21 TIME:   0.016 TIME LEFT:  2.00D  GRAD.:    77.955 HEAT:  137.1475
 CYCLE:    22 TIME:   0.020 TIME LEFT:  2.00D  GRAD.:    74.455 HEAT:  136.2708
 CYCLE:    23 TIME:   0.035 TIME LEFT:  2.00D  GRAD.:    90.760 HEAT:  136.1742
 CYCLE:    24 TIME:   0.020 TIME LEFT:  2.00D  GRAD.:    80.383 HEAT:  135.4463
 CYCLE:    25 TIME:   0.016 TIME LEFT:  2.00D  GRAD.:    76.542 HEAT:  135.0435
 CYCLE:    26 TIME:   0.020 TIME LEFT:  2.00D  GRAD.:    78.875 HEAT:  134.5785
 CYCLE:    27 TIME:   0.020 TIME LEFT:  2.00D  GRAD.:    83.565 HEAT:  133.9581
 CYCLE:    28 TIME:   0.020 TIME LEFT:  2.00D  GRAD.:    88.164 HEAT:  133.9110
 CYCLE:    29 TIME:   0.020 TIME LEFT:  2.00D  GRAD.:    73.120 HEAT:  132.7649
 CYCLE:    30 TIME:   0.051 TIME LEFT:  2.00D  GRAD.:    66.776 HEAT:  132.3110
 CYCLE:    31 TIME:   0.020 TIME LEFT:  2.00D  GRAD.:    69.433 HEAT:  132.1008
 CYCLE:    32 TIME:   0.020 TIME LEFT:  2.00D  GRAD.:    70.792 HEAT:  131.5791
 CYCLE:    33 TIME:   0.020 TIME LEFT:  2.00D  GRAD.:    70.819 HEAT:  131.0475
 CYCLE:    34 TIME:   0.016 TIME LEFT:  2.00D  GRAD.:    54.482 HEAT:  129.4999
 CYCLE:    35 TIME:   0.023 TIME LEFT:  2.00D  GRAD.:    62.332 HEAT:  127.6929
 CYCLE:    36 TIME:   0.020 TIME LEFT:  2.00D  GRAD.:    62.048 HEAT:  125.6895
 CYCLE:    37 TIME:   0.020 TIME LEFT:  2.00D  GRAD.:    75.344 HEAT:  123.8979
 CYCLE:    38 TIME:   0.035 TIME LEFT:  2.00D  GRAD.:    51.272 HEAT:  122.3439
 CYCLE:    39 TIME:   0.020 TIME LEFT:  2.00D  GRAD.:    57.664 HEAT:  122.1837
 CYCLE:    40 TIME:   0.020 TIME LEFT:  2.00D  GRAD.:    31.936 HEAT:  120.9471
 CYCLE:    41 TIME:   0.039 TIME LEFT:  2.00D  GRAD.:    45.701 HEAT:  120.7108
 CYCLE:    42 TIME:   0.020 TIME LEFT:  2.00D  GRAD.:    22.938 HEAT:  119.8391
 CYCLE:    43 TIME:   0.016 TIME LEFT:  2.00D  GRAD.:    22.976 HEAT:  119.2042
 CYCLE:    44 TIME:   0.027 TIME LEFT:  2.00D  GRAD.:    53.140 HEAT:  118.7695
 CYCLE:    45 TIME:   0.020 TIME LEFT:  2.00D  GRAD.:    16.479 HEAT:  117.6793
 CYCLE:    46 TIME:   0.020 TIME LEFT:  2.00D  GRAD.:    35.453 HEAT:  117.4373
 CYCLE:    47 TIME:   0.016 TIME LEFT:  2.00D  GRAD.:    17.509 HEAT:  116.9820
 CYCLE:    48 TIME:   0.023 TIME LEFT:  2.00D  GRAD.:    14.771 HEAT:  116.7721
 CYCLE:    49 TIME:   0.016 TIME LEFT:  2.00D  GRAD.:    12.552 HEAT:  116.4806
 CYCLE:    50 TIME:   0.020 TIME LEFT:  2.00D  GRAD.:    16.138 HEAT:  116.2296
 CYCLE:    51 TIME:   0.020 TIME LEFT:  2.00D  GRAD.:    10.193 HEAT:  116.0097
 CYCLE:    52 TIME:   0.016 TIME LEFT:  2.00D  GRAD.:     6.497 HEAT:  115.9109
 CYCLE:    53 TIME:   0.020 TIME LEFT:  2.00D  GRAD.:     6.349 HEAT:  115.8446
 CYCLE:    54 TIME:   0.020 TIME LEFT:  2.00D  GRAD.:     5.880 HEAT:  115.8044
 CYCLE:    55 TIME:   0.023 TIME LEFT:  2.00D  GRAD.:     6.730 HEAT:  115.7553
 CYCLE:    56 TIME:   0.016 TIME LEFT:  2.00D  GRAD.:     6.443 HEAT:  115.7049
 CYCLE:    57 TIME:   0.020 TIME LEFT:  2.00D  GRAD.:     5.805 HEAT:  115.6363
 CYCLE:    58 TIME:   0.023 TIME LEFT:  2.00D  GRAD.:     6.675 HEAT:  115.5833
 CYCLE:    59 TIME:   0.020 TIME LEFT:  2.00D  GRAD.:     5.239 HEAT:  115.5430
 CYCLE:    60 TIME:   0.016 TIME LEFT:  2.00D  GRAD.:     6.619 HEAT:  115.5132
 CYCLE:    61 TIME:   0.020 TIME LEFT:  2.00D  GRAD.:     6.129 HEAT:  115.4867
 CYCLE:    62 TIME:   0.020 TIME LEFT:  2.00D  GRAD.:     3.946 HEAT:  115.4533
 CYCLE:    63 TIME:   0.016 TIME LEFT:  2.00D  GRAD.:     4.356 HEAT:  115.4336
 CYCLE:    64 TIME:   0.020 TIME LEFT:  2.00D  GRAD.:     3.855 HEAT:  115.4134
 CYCLE:    65 TIME:   0.020 TIME LEFT:  2.00D  GRAD.:     3.626 HEAT:  115.3986
 CYCLE:    66 TIME:   0.043 TIME LEFT:  2.00D  GRAD.:     2.600 HEAT:  115.3850
 CYCLE:    67 TIME:   0.020 TIME LEFT:  2.00D  GRAD.:     2.184 HEAT:  115.3777
 CYCLE:    68 TIME:   0.020 TIME LEFT:  2.00D  GRAD.:     2.401 HEAT:  115.3695
 CYCLE:    69 TIME:   0.016 TIME LEFT:  2.00D  GRAD.:     2.248 HEAT:  115.3604
 CYCLE:    70 TIME:   0.020 TIME LEFT:  2.00D  GRAD.:     2.468 HEAT:  115.3469
 CYCLE:    71 TIME:   0.020 TIME LEFT:  2.00D  GRAD.:     2.234 HEAT:  115.3314
 CYCLE:    72 TIME:   0.020 TIME LEFT:  2.00D  GRAD.:     2.119 HEAT:  115.3186
 CYCLE:    73 TIME:   0.020 TIME LEFT:  2.00D  GRAD.:     2.010 HEAT:  115.3096
 CYCLE:    74 TIME:   0.020 TIME LEFT:  2.00D  GRAD.:     1.573 HEAT:  115.3045
 CYCLE:    75 TIME:   0.016 TIME LEFT:  2.00D  GRAD.:     1.715 HEAT:  115.3010
 CYCLE:    76 TIME:   0.020 TIME LEFT:  2.00D  GRAD.:     1.897 HEAT:  115.2961
 CYCLE:    77 TIME:   0.016 TIME LEFT:  2.00D  GRAD.:     2.335 HEAT:  115.2876
 CYCLE:    78 TIME:   0.020 TIME LEFT:  2.00D  GRAD.:     3.276 HEAT:  115.2661
 CYCLE:    79 TIME:   0.020 TIME LEFT:  2.00D  GRAD.:     3.591 HEAT:  115.2431
 CYCLE:    80 TIME:   0.020 TIME LEFT:  2.00D  GRAD.:     4.107 HEAT:  115.1967
 CYCLE:    81 TIME:   0.016 TIME LEFT:  2.00D  GRAD.:     3.844 HEAT:  115.1907
 CYCLE:    82 TIME:   0.020 TIME LEFT:  2.00D  GRAD.:     3.445 HEAT:  115.1716
 CYCLE:    83 TIME:   0.020 TIME LEFT:  2.00D  GRAD.:     2.811 HEAT:  115.1653
 CYCLE:    84 TIME:   0.016 TIME LEFT:  2.00D  GRAD.:     2.024 HEAT:  115.1580
 CYCLE:    85 TIME:   0.020 TIME LEFT:  2.00D  GRAD.:     1.621 HEAT:  115.1499
 CYCLE:    86 TIME:   0.016 TIME LEFT:  2.00D  GRAD.:     2.350 HEAT:  115.1462
 CYCLE:    87 TIME:   0.020 TIME LEFT:  2.00D  GRAD.:     1.662 HEAT:  115.1429
 CYCLE:    88 TIME:   0.020 TIME LEFT:  2.00D  GRAD.:     1.686 HEAT:  115.1407
 CYCLE:    89 TIME:   0.031 TIME LEFT:  2.00D  GRAD.:     1.774 HEAT:  115.1390
 CYCLE:    90 TIME:   0.016 TIME LEFT:  2.00D  GRAD.:     1.793 HEAT:  115.1372
 CYCLE:    91 TIME:   0.020 TIME LEFT:  2.00D  GRAD.:     2.019 HEAT:  115.1322
 CYCLE:    92 TIME:   0.020 TIME LEFT:  2.00D  GRAD.:     2.062 HEAT:  115.1288
 CYCLE:    93 TIME:   0.016 TIME LEFT:  2.00D  GRAD.:     4.017 HEAT:  115.1303
 CYCLE:    94 TIME:   0.020 TIME LEFT:  2.00D  GRAD.:     3.010 HEAT:  115.1228
 CYCLE:    95 TIME:   0.016 TIME LEFT:  2.00D  GRAD.:     1.943 HEAT:  115.1184
 CYCLE:    96 TIME:   0.020 TIME LEFT:  2.00D  GRAD.:     1.816 HEAT:  115.1161
 CYCLE:    97 TIME:   0.020 TIME LEFT:  2.00D  GRAD.:     2.650 HEAT:  115.1154
 CYCLE:    98 TIME:   0.016 TIME LEFT:  2.00D  GRAD.:     1.524 HEAT:  115.1110
 CYCLE:    99 TIME:   0.020 TIME LEFT:  2.00D  GRAD.:     1.505 HEAT:  115.1092
 CYCLE:   100 TIME:   0.020 TIME LEFT:  2.00D  GRAD.:     1.522 HEAT:  115.1042
 CYCLE:   101 TIME:   0.020 TIME LEFT:  2.00D  GRAD.:     1.506 HEAT:  115.1024
 CYCLE:   102 TIME:   0.020 TIME LEFT:  2.00D  GRAD.:     1.883 HEAT:  115.0983
 CYCLE:   103 TIME:   0.016 TIME LEFT:  2.00D  GRAD.:     1.930 HEAT:  115.0972
 CYCLE:   104 TIME:   0.016 TIME LEFT:  2.00D  GRAD.:     1.876 HEAT:  115.0962
 CYCLE:   105 TIME:   0.020 TIME LEFT:  2.00D  GRAD.:     1.877 HEAT:  115.0954
 CYCLE:   106 TIME:   0.020 TIME LEFT:  2.00D  GRAD.:     1.993 HEAT:  115.0945
 CYCLE:   107 TIME:   0.016 TIME LEFT:  2.00D  GRAD.:     2.381 HEAT:  115.0921
 CYCLE:   108 TIME:   0.020 TIME LEFT:  2.00D  GRAD.:     3.384 HEAT:  115.0805
 CYCLE:   109 TIME:   0.020 TIME LEFT:  2.00D  GRAD.:     6.408 HEAT:  115.0422
 CYCLE:   110 TIME:   0.016 TIME LEFT:  2.00D  GRAD.:     3.519 HEAT:  115.0129
 CYCLE:   111 TIME:   0.020 TIME LEFT:  2.00D  GRAD.:     2.188 HEAT:  114.9845
 CYCLE:   112 TIME:   0.020 TIME LEFT:  2.00D  GRAD.:     2.087 HEAT:  114.9687
 CYCLE:   113 TIME:   0.016 TIME LEFT:  2.00D  GRAD.:     1.005 HEAT:  114.9475
 CYCLE:   114 TIME:   0.020 TIME LEFT:  2.00D  GRAD.:     3.702 HEAT:  114.9140
 CYCLE:   115 TIME:   0.020 TIME LEFT:  2.00D  GRAD.:     7.728 HEAT:  114.8554
 CYCLE:   116 TIME:   0.039 TIME LEFT:  2.00D  GRAD.:     9.714 HEAT:  114.7770
 CYCLE:   117 TIME:   0.020 TIME LEFT:  2.00D  GRAD.:    11.883 HEAT:  114.6989
 CYCLE:   118 TIME:   0.020 TIME LEFT:  2.00D  GRAD.:    15.471 HEAT:  114.5941
 CYCLE:   119 TIME:   0.086 TIME LEFT:  2.00D  GRAD.:     4.759 HEAT:  114.5309
 CYCLE:   120 TIME:   0.020 TIME LEFT:  2.00D  GRAD.:     2.612 HEAT:  114.4939
 CYCLE:   121 TIME:   0.016 TIME LEFT:  2.00D  GRAD.:     2.672 HEAT:  114.4571
 CYCLE:   122 TIME:   0.020 TIME LEFT:  2.00D  GRAD.:     2.413 HEAT:  114.4190
 CYCLE:   123 TIME:   0.020 TIME LEFT:  2.00D  GRAD.:     6.508 HEAT:  114.3637
 CYCLE:   124 TIME:   0.016 TIME LEFT:  2.00D  GRAD.:    12.096 HEAT:  114.3455
 CYCLE:   125 TIME:   0.020 TIME LEFT:  2.00D  GRAD.:     7.864 HEAT:  114.3016
 CYCLE:   126 TIME:   0.039 TIME LEFT:  2.00D  GRAD.:     5.413 HEAT:  114.2839
 CYCLE:   127 TIME:   0.016 TIME LEFT:  2.00D  GRAD.:     3.618 HEAT:  114.2321
 CYCLE:   128 TIME:   0.020 TIME LEFT:  2.00D  GRAD.:     4.687 HEAT:  114.2102
 CYCLE:   129 TIME:   0.020 TIME LEFT:  2.00D  GRAD.:     3.862 HEAT:  114.1862
 CYCLE:   130 TIME:   0.016 TIME LEFT:  2.00D  GRAD.:     6.963 HEAT:  114.1545
 CYCLE:   131 TIME:   0.020 TIME LEFT:  2.00D  GRAD.:     4.300 HEAT:  114.1283
 CYCLE:   132 TIME:   0.035 TIME LEFT:  2.00D  GRAD.:     5.313 HEAT:  114.1130
 CYCLE:   133 TIME:   0.039 TIME LEFT:  2.00D  GRAD.:     5.496 HEAT:  114.1014
 CYCLE:   134 TIME:   0.035 TIME LEFT:  2.00D  GRAD.:     4.917 HEAT:  114.0985
 CYCLE:   135 TIME:   0.020 TIME LEFT:  2.00D  GRAD.:     2.484 HEAT:  114.0829
 CYCLE:   136 TIME:   0.035 TIME LEFT:  2.00D  GRAD.:     2.606 HEAT:  114.0816
 CYCLE:   137 TIME:   0.016 TIME LEFT:  2.00D  GRAD.:     1.169 HEAT:  114.0731
 CYCLE:   138 TIME:   0.020 TIME LEFT:  2.00D  GRAD.:     1.701 HEAT:  114.0627
 CYCLE:   139 TIME:   0.016 TIME LEFT:  2.00D  GRAD.:     2.697 HEAT:  114.0497
 CYCLE:   140 TIME:   0.020 TIME LEFT:  2.00D  GRAD.:     3.562 HEAT:  114.0426
 CYCLE:   141 TIME:   0.020 TIME LEFT:  2.00D  GRAD.:     4.712 HEAT:  114.0376
 CYCLE:   142 TIME:   0.016 TIME LEFT:  2.00D  GRAD.:     6.948 HEAT:  114.0369
 CYCLE:   143 TIME:   0.020 TIME LEFT:  2.00D  GRAD.:     1.778 HEAT:  114.0261
 CYCLE:   144 TIME:   0.020 TIME LEFT:  2.00D  GRAD.:     1.906 HEAT:  114.0237
 CYCLE:   145 TIME:   0.016 TIME LEFT:  2.00D  GRAD.:     2.320 HEAT:  114.0199
 CYCLE:   146 TIME:   0.020 TIME LEFT:  2.00D  GRAD.:     1.853 HEAT:  114.0162
 CYCLE:   147 TIME:   0.016 TIME LEFT:  2.00D  GRAD.:     1.426 HEAT:  114.0111
 CYCLE:   148 TIME:   0.020 TIME LEFT:  2.00D  GRAD.:     2.679 HEAT:  114.0074
 CYCLE:   149 TIME:   0.039 TIME LEFT:  2.00D  GRAD.:     2.956 HEAT:  114.0046
 CYCLE:   150 TIME:   0.016 TIME LEFT:  2.00D  GRAD.:     1.679 HEAT:  114.0018
 CYCLE:   151 TIME:   0.020 TIME LEFT:  2.00D  GRAD.:     1.082 HEAT:  113.9964
 CYCLE:   152 TIME:   0.020 TIME LEFT:  2.00D  GRAD.:     2.113 HEAT:  113.9902
 CYCLE:   153 TIME:   0.016 TIME LEFT:  2.00D  GRAD.:     2.734 HEAT:  113.9850
 CYCLE:   154 TIME:   0.020 TIME LEFT:  2.00D  GRAD.:     3.775 HEAT:  113.9786
 CYCLE:   155 TIME:   0.020 TIME LEFT:  2.00D  GRAD.:     3.562 HEAT:  113.9699
 CYCLE:   156 TIME:   0.016 TIME LEFT:  2.00D  GRAD.:     2.432 HEAT:  113.9699
 CYCLE:   157 TIME:   0.020 TIME LEFT:  2.00D  GRAD.:     2.584 HEAT:  113.9621
 CYCLE:   158 TIME:   0.020 TIME LEFT:  2.00D  GRAD.:     2.047 HEAT:  113.9570
 CYCLE:   159 TIME:   0.016 TIME LEFT:  2.00D  GRAD.:     3.247 HEAT:  113.9515
 CYCLE:   160 TIME:   0.020 TIME LEFT:  2.00D  GRAD.:     2.735 HEAT:  113.9388
 CYCLE:   161 TIME:   0.020 TIME LEFT:  2.00D  GRAD.:     3.932 HEAT:  113.9265
 CYCLE:   162 TIME:   0.020 TIME LEFT:  2.00D  GRAD.:     5.596 HEAT:  113.9242
 CYCLE:   163 TIME:   0.016 TIME LEFT:  2.00D  GRAD.:     6.107 HEAT:  113.9091
 CYCLE:   164 TIME:   0.070 TIME LEFT:  2.00D  GRAD.:     5.721 HEAT:  113.8958
 CYCLE:   165 TIME:   0.020 TIME LEFT:  2.00D  GRAD.:     5.102 HEAT:  113.8843
 CYCLE:   166 TIME:   0.020 TIME LEFT:  2.00D  GRAD.:     2.207 HEAT:  113.8731
 CYCLE:   167 TIME:   0.016 TIME LEFT:  2.00D  GRAD.:     1.504 HEAT:  113.8662
 CYCLE:   168 TIME:   0.020 TIME LEFT:  2.00D  GRAD.:     2.846 HEAT:  113.8564
 CYCLE:   169 TIME:   0.016 TIME LEFT:  2.00D  GRAD.:     2.688 HEAT:  113.8440
 CYCLE:   170 TIME:   0.020 TIME LEFT:  2.00D  GRAD.:     2.259 HEAT:  113.8266
 CYCLE:   171 TIME:   0.020 TIME LEFT:  2.00D  GRAD.:     3.306 HEAT:  113.8157
 CYCLE:   172 TIME:   0.086 TIME LEFT:  2.00D  GRAD.:     5.351 HEAT:  113.8138
 CYCLE:   173 TIME:   0.020 TIME LEFT:  2.00D  GRAD.:     1.732 HEAT:  113.8061
 CYCLE:   174 TIME:   0.016 TIME LEFT:  2.00D  GRAD.:     1.129 HEAT:  113.8021
 CYCLE:   175 TIME:   0.020 TIME LEFT:  2.00D  GRAD.:     2.378 HEAT:  113.7908
 CYCLE:   176 TIME:   0.020 TIME LEFT:  2.00D  GRAD.:     4.922 HEAT:  113.7878
 CYCLE:   177 TIME:   0.016 TIME LEFT:  2.00D  GRAD.:     2.299 HEAT:  113.7725
 CYCLE:   178 TIME:   0.020 TIME LEFT:  2.00D  GRAD.:     1.645 HEAT:  113.7650
 CYCLE:   179 TIME:   0.020 TIME LEFT:  2.00D  GRAD.:     3.504 HEAT:  113.7625
 CYCLE:   180 TIME:   0.020 TIME LEFT:  2.00D  GRAD.:     1.468 HEAT:  113.7568
 CYCLE:   181 TIME:   0.020 TIME LEFT:  2.00D  GRAD.:     1.964 HEAT:  113.7558
 CYCLE:   182 TIME:   0.020 TIME LEFT:  2.00D  GRAD.:     1.383 HEAT:  113.7531
 CYCLE:   183 TIME:   0.020 TIME LEFT:  2.00D  GRAD.:     1.068 HEAT:  113.7521
 CYCLE:   184 TIME:   0.020 TIME LEFT:  2.00D  GRAD.:     1.031 HEAT:  113.7509
 CYCLE:   185 TIME:   0.020 TIME LEFT:  2.00D  GRAD.:     1.363 HEAT:  113.7497
 CYCLE:   186 TIME:   0.020 TIME LEFT:  2.00D  GRAD.:     0.912 HEAT:  113.7486
 CYCLE:   187 TIME:   0.020 TIME LEFT:  2.00D  GRAD.:     1.111 HEAT:  113.7474
 CYCLE:   188 TIME:   0.016 TIME LEFT:  2.00D  GRAD.:     0.973 HEAT:  113.7452
 CYCLE:   189 TIME:   0.020 TIME LEFT:  2.00D  GRAD.:     1.052 HEAT:  113.7424
 CYCLE:   190 TIME:   0.020 TIME LEFT:  2.00D  GRAD.:     0.929 HEAT:  113.7410
 CYCLE:   191 TIME:   0.020 TIME LEFT:  2.00D  GRAD.:     0.600 HEAT:  113.7395
 CYCLE:   192 TIME:   0.016 TIME LEFT:  2.00D  GRAD.:     0.358 HEAT:  113.7389
 CYCLE:   193 TIME:   0.020 TIME LEFT:  2.00D  GRAD.:     0.344 HEAT:  113.7386
 CYCLE:   194 TIME:   0.020 TIME LEFT:  2.00D  GRAD.:     0.230 HEAT:  113.7385
 CYCLE:   195 TIME:   0.020 TIME LEFT:  2.00D  GRAD.:     0.156 HEAT:  113.7384
 CYCLE:   196 TIME:   0.016 TIME LEFT:  2.00D  GRAD.:     0.127 HEAT:  113.7383
 CYCLE:   197 TIME:   0.020 TIME LEFT:  2.00D  GRAD.:     0.161 HEAT:  113.7383
 CYCLE:   198 TIME:   0.016 TIME LEFT:  2.00D  GRAD.:     0.146 HEAT:  113.7383
 CYCLE:   199 TIME:   0.016 TIME LEFT:  2.00D  GRAD.:     0.189 HEAT:  113.7382
 CYCLE:   200 TIME:   0.020 TIME LEFT:  2.00D  GRAD.:     0.147 HEAT:  113.7382
 CYCLE:   201 TIME:   0.016 TIME LEFT:  2.00D  GRAD.:     0.151 HEAT:  113.7382
 CYCLE:   202 TIME:   0.020 TIME LEFT:  2.00D  GRAD.:     0.116 HEAT:  113.7382
 CYCLE:   203 TIME:   0.016 TIME LEFT:  2.00D  GRAD.:     0.142 HEAT:  113.7382
 CYCLE:   204 TIME:   0.020 TIME LEFT:  2.00D  GRAD.:     0.125 HEAT:  113.7381
 CYCLE:   205 TIME:   0.016 TIME LEFT:  2.00D  GRAD.:     1.277 HEAT:  113.7394
 CYCLE:   206 TIME:   0.020 TIME LEFT:  2.00D  GRAD.:     0.668 HEAT:  113.7400
 CYCLE:   207 TIME:   0.020 TIME LEFT:  2.00D  GRAD.:     0.673 HEAT:  113.7388
 CYCLE:   208 TIME:   0.016 TIME LEFT:  2.00D  GRAD.:     0.287 HEAT:  113.7380
 CYCLE:   209 TIME:   0.020 TIME LEFT:  2.00D  GRAD.:     0.121 HEAT:  113.7380
 CYCLE:   210 TIME:   0.027 TIME LEFT:  2.00D  GRAD.:     0.127 HEAT:  113.7380
 CYCLE:   211 TIME:   0.016 TIME LEFT:  2.00D  GRAD.:     0.108 HEAT:  113.7380
 CYCLE:   212 TIME:   0.020 TIME LEFT:  2.00D  GRAD.:     0.112 HEAT:  113.7380
 CYCLE:   213 TIME:   0.016 TIME LEFT:  2.00D  GRAD.:     0.102 HEAT:  113.7380
 CYCLE:   214 TIME:   0.020 TIME LEFT:  2.00D  GRAD.:     0.116 HEAT:  113.7379
 CYCLE:   215 TIME:   0.016 TIME LEFT:  2.00D  GRAD.:     0.080 HEAT:  113.7379
 CYCLE:   216 TIME:   0.020 TIME LEFT:  2.00D  GRAD.:     0.770 HEAT:  113.7393
 CYCLE:   217 TIME:   0.020 TIME LEFT:  2.00D  GRAD.:     0.064 HEAT:  113.7379
 CYCLE:   218 TIME:   0.016 TIME LEFT:  2.00D  GRAD.:     0.058 HEAT:  113.7379
 CYCLE:   219 TIME:   0.020 TIME LEFT:  2.00D  GRAD.:     0.057 HEAT:  113.7379
 CYCLE:   220 TIME:   0.016 TIME LEFT:  2.00D  GRAD.:     0.032 HEAT:  113.7379

     GRADIENT =  0.03221 IS LESS THAN CUTOFF =  0.05000



 -------------------------------------------------------------------------------
 PM6 PRECISE POLAR MMOK XYZ ENPART STATIC SUPER BONDS LARGE PRTXYZ DISP ALLVEC CYCLES = 8000
 buscn
 All coordinates are Cartesian


     GEOMETRY OPTIMISED USING EIGENVECTOR FOLLOWING (EF).     
     SCF FIELD WAS ACHIEVED                                   


                              PM6 CALCULATION
                                                       MOPAC v22.1.1 MacOS
                                                       Mon Apr 22 11:30:54 2024




          FINAL HEAT OF FORMATION =        113.73786 KCAL/MOL =     475.87920 KJ/MOL

          TOTAL ENERGY            =     -27828.80280 KCAL/MOL = ELECTRONIC ENERGY + CORE-CORE REPULSION
          ENERGY OF ATOMS         =      27942.54066 KCAL/MOL
                              SUM =        113.73786 KCAL/MOL
          DISPERSION ENERGY       =          0.00000 KCAL/MOL
                              SUM =        113.73786 KCAL/MOL = FINAL HEAT OF FORMATION



          TOTAL ENERGY            =      -1206.77111 EV
          ELECTRONIC ENERGY       =      -5621.75642 EV 
          CORE-CORE REPULSION     =       4414.98531 EV
          COSMO AREA              =        166.50 SQUARE ANGSTROMS
          COSMO VOLUME            =        170.91 CUBIC ANGSTROMS

          GRADIENT NORM           =          0.03221          =       0.00781 PER ATOM
          IONIZATION POTENTIAL    =          9.737607 EV
          HOMO LUMO ENERGIES (EV) =         -9.738 -0.892
          NO. OF FILLED LEVELS    =         22
          MOLECULAR WEIGHT        =        127.2038         POINT GROUP:  C1  

          MOLECULAR DIMENSIONS (Angstroms)

            Atom       Atom       Distance
            H    10    N     4     5.81728
            H    16    H     5     5.10714
            H     9    H     6     2.84221


          SCF CALCULATIONS        =        249
 
          WALL-CLOCK TIME         =      4.754 SECONDS
          COMPUTATION TIME        =     33.167 SECONDS




   ATOM   CHEMICAL          X               Y               Z
  NUMBER   SYMBOL      (ANGSTROMS)     (ANGSTROMS)     (ANGSTROMS)
 
     1       C          0.10351170  *  -1.31957448  *   0.52896143  *
     2       S         -1.43550190  *  -0.69420911  *  -0.20632620  *
     3       C         -1.52382635  *   0.85493673  *   0.29655174  *
     4       N         -2.31330055  *   1.96005935  *   0.18757189  *
     5       H         -0.09236460  *  -2.37084078  *   0.82312259  *
     6       H          0.34745751  *  -0.77454880  *   1.46375463  *
     7       C          1.25277826  *  -1.23561563  *  -0.46464285  *
     8       C          1.70705542  *   0.19462072  *  -0.79082982  *
     9       H          0.98679353  *  -1.75567137  *  -1.40848324  *
    10       H          2.11605783  *  -1.80341676  *  -0.05268131  *
    11       H          0.88213632  *   0.76144409  *  -1.26619072  *
    12       H          2.50578979  *   0.14298700  *  -1.55976196  *
    13       C          2.22261450  *   0.96004050  *   0.42360122  *
    14       H          2.98870015  *   0.39813022  *   0.96814392  *
    15       H          1.41661068  *   1.19641559  *   1.13100315  *
    16       H          2.66899013  *   1.91686261  *   0.12572895  *
    17       C         -1.20247643  *   2.13054656  *   0.97010807  *

                             CARTESIAN COORDINATES

   1    C        0.103511703    -1.319574476     0.528961432
   2    S       -1.435501898    -0.694209111    -0.206326197
   3    C       -1.523826349     0.854936734     0.296551739
   4    N       -2.313300550     1.960059346     0.187571891
   5    H       -0.092364596    -2.370840783     0.823122587
   6    H        0.347457513    -0.774548803     1.463754628
   7    C        1.252778262    -1.235615625    -0.464642847
   8    C        1.707055416     0.194620723    -0.790829819
   9    H        0.986793531    -1.755671371    -1.408483238
  10    H        2.116057831    -1.803416756    -0.052681315
  11    H        0.882136317     0.761444091    -1.266190716
  12    H        2.505789791     0.142986998    -1.559761964
  13    C        2.222614499     0.960040497     0.423601218
  14    H        2.988700148     0.398130218     0.968143924
  15    H        1.416610683     1.196415586     1.131003147
  16    H        2.668990132     1.916862610     0.125728947
  17    C       -1.202476434     2.130546561     0.970108072


           Empirical Formula: C6 H9 N S  =    17 atoms



      MOLECULAR POINT GROUP   :   C1  


                EIGENVECTORS  


   Root No.       1         2         3         4         5         6         7         8

                 1 A       2 A       3 A       4 A       5 A       6 A       7 A       8 A   

               -33.912   -30.696   -28.181   -25.449   -22.889   -20.075   -18.799   -18.352
  
  S   C    1    0.0403    0.3942    0.0935   -0.3934    0.3882    0.1966   -0.0000   -0.1574
  Px  C    1   -0.0167   -0.0581    0.1630   -0.1203   -0.0410   -0.1843   -0.0768   -0.1799
  Py  C    1    0.0165    0.0567   -0.0123    0.0791   -0.0589    0.0229   -0.0699    0.0082
  Pz  C    1   -0.0065   -0.0667   -0.0335    0.0340    0.1417    0.1348   -0.0697   -0.2621
  S   S    2    0.1680    0.6681   -0.3826    0.2042   -0.0928    0.0105    0.1764    0.3005
  Px  S    2    0.0054    0.1423    0.0115   -0.0915    0.0965    0.1233   -0.0385    0.1139
  Py  S    2    0.0950    0.0799   -0.0920    0.1457   -0.1490   -0.1652   -0.1422   -0.2575
  Pz  S    2    0.0372    0.1082   -0.0572    0.0056    0.0556    0.0485   -0.0757   -0.0595
  x2  S    2   -0.0122   -0.0087    0.0203   -0.0301    0.0290    0.0375    0.0240    0.0550
  xz  S    2    0.0006    0.0147   -0.0021   -0.0102    0.0214    0.0246   -0.0027    0.0076
  z2  S    2   -0.0081   -0.0186    0.0070   -0.0021    0.0058    0.0103   -0.0011    0.0176
  yz  S    2    0.0066    0.0088   -0.0105    0.0171   -0.0202   -0.0256   -0.0323   -0.0257
  xy  S    2   -0.0063   -0.0172    0.0049    0.0097   -0.0112   -0.0063   -0.0293    0.0095
  S   C    3    0.4650    0.1532   -0.1361    0.1421   -0.1264   -0.1707   -0.3116   -0.3337
  Px  C    3   -0.0865    0.0616   -0.0079    0.0070    0.0213    0.0610   -0.3565    0.1835
  Py  C    3    0.2283   -0.2570    0.1598   -0.1292    0.0934    0.0817   -0.0322    0.0621
  Pz  C    3    0.0271   -0.0570    0.0415   -0.0453    0.0612    0.0673   -0.2435    0.1284
  S   N    4    0.5984   -0.1619    0.0702   -0.0701    0.0364    0.0369    0.5600    0.0082
  Px  N    4    0.2681   -0.0596    0.0278   -0.0219    0.0186    0.0329   -0.1990    0.1116
  Py  N    4   -0.1487   -0.0098    0.0283   -0.0420    0.0587    0.1280    0.0041    0.3851
  Pz  N    4    0.1196   -0.0431    0.0249   -0.0313    0.0373    0.0662   -0.1279    0.2063
  S   H    5    0.0116    0.1470    0.0339   -0.2029    0.2312    0.1197    0.0383   -0.1029
  S   H    6    0.0202    0.1587    0.0529   -0.1455    0.2267    0.1314   -0.0771   -0.2315
  S   C    7    0.0168    0.2633    0.3951   -0.3524   -0.2490   -0.3280   -0.0108    0.0808
  Px  C    7   -0.0078   -0.0682    0.0499    0.1006   -0.1350   -0.0839   -0.0139   -0.0213
  Py  C    7    0.0045    0.0290    0.0876    0.1214   -0.0836    0.2255   -0.0257   -0.0682
  Pz  C    7    0.0035    0.0398   -0.0021   -0.0690    0.1970   -0.0085   -0.0377   -0.1663
  S   C    8    0.0138    0.1738    0.4743    0.2145   -0.2903    0.3667    0.0100   -0.0839
  Px  C    8   -0.0054   -0.0312    0.0111    0.0846    0.0526   -0.0378    0.0369    0.0015
  Py  C    8   -0.0008   -0.0394   -0.0368    0.1763    0.1593    0.1521    0.0145   -0.0454
  Pz  C    8    0.0025    0.0296    0.0660    0.0567    0.1636   -0.1772   -0.0169   -0.0058
  S   H    9    0.0067    0.1075    0.1538   -0.1685   -0.1654   -0.1940    0.0263    0.1524
  S   H   10    0.0049    0.0961    0.1776   -0.1596   -0.1022   -0.2602   -0.0116    0.0100
  S   H   11    0.0123    0.0829    0.1848    0.1012   -0.1466    0.2736   -0.0091   -0.0512
  S   H   12    0.0040    0.0610    0.1990    0.1038   -0.1758    0.2191    0.0281   -0.0341
  S   C   13    0.0091    0.1025    0.3694    0.4481    0.3688   -0.2065    0.0330    0.0654
  Px  C   13   -0.0039   -0.0226   -0.0340    0.0034    0.0344   -0.0916    0.0434    0.0519
  Py  C   13   -0.0014   -0.0283   -0.0635    0.0158    0.0783   -0.0472    0.0084    0.0521
  Pz  C   13   -0.0009   -0.0208   -0.0738   -0.0391    0.1221   -0.2115   -0.0197    0.0616
  S   H   14    0.0033    0.0441    0.1599    0.1898    0.1929   -0.1848    0.0250    0.0544
  S   H   15    0.0091    0.0525    0.1528    0.1871    0.2119   -0.1356   -0.0278    0.0329
  S   H   16    0.0032    0.0349    0.1471    0.2179    0.1947   -0.1077    0.0339    0.0615
  S   C   17    0.3775   -0.0949    0.0559   -0.0475    0.0663    0.1107   -0.4252    0.3720
  Px  C   17   -0.1719    0.0554   -0.0209    0.0335   -0.0158   -0.0352   -0.1717   -0.0784
  Py  C   17   -0.1305   -0.0074    0.0114   -0.0207    0.0179    0.0463    0.1946    0.1501
  Pz  C   17   -0.1590    0.0319   -0.0140    0.0104   -0.0025   -0.0070   -0.0408   -0.0004


   Root No.       9        10        11        12        13        14        15        16

                 9 A      10 A      11 A      12 A      13 A      14 A      15 A      16 A   

               -16.356   -16.196   -14.668   -14.463   -14.273   -13.984   -13.391   -12.588
  
  S   C    1   -0.0120   -0.0408   -0.0298   -0.0251   -0.0390    0.0901   -0.0284    0.0033
  Px  C    1    0.1911    0.0356    0.2527   -0.0689    0.0839    0.2256   -0.0846   -0.2767
  Py  C    1    0.4211    0.1419   -0.1286    0.0844   -0.2609    0.2659    0.3542    0.0550
  Pz  C    1   -0.1049    0.3104    0.1133    0.1868   -0.2655   -0.2676    0.0965   -0.0250
  S   S    2   -0.0178    0.0845   -0.0236   -0.0568    0.1230   -0.0798    0.1420   -0.2174
  Px  S    2    0.0937   -0.1230   -0.1661   -0.1163   -0.1449    0.0919    0.0819    0.2847
  Py  S    2    0.0881    0.0397    0.2803   -0.0039   -0.1467    0.0893   -0.2491    0.0966
  Pz  S    2   -0.0611    0.0943   -0.0561    0.2492   -0.0197    0.0392   -0.0105    0.2527
  x2  S    2    0.0213   -0.0088   -0.0749    0.0055    0.0129    0.0180    0.0818   -0.0156
  xz  S    2    0.0044    0.0004   -0.0292   -0.0054   -0.0290   -0.0023    0.0278    0.0392
  z2  S    2   -0.0056    0.0215   -0.0080    0.0218    0.0086   -0.0134    0.0294   -0.0263
  yz  S    2    0.0043    0.0136    0.0389    0.0372    0.0059    0.0297   -0.0452    0.0172
  xy  S    2    0.0181    0.0215    0.0320   -0.0143   -0.0160   -0.0071    0.0094   -0.0238
  S   C    3   -0.0825   -0.1100   -0.0122   -0.0016   -0.0182    0.0284   -0.0923    0.1129
  Px  C    3    0.0527    0.0061    0.1367   -0.2252   -0.2003   -0.0453   -0.0644    0.2194
  Py  C    3   -0.0380   -0.1546   -0.2856   -0.2142    0.0210   -0.1101    0.2900   -0.1224
  Pz  C    3   -0.0837    0.0714   -0.1385    0.3882    0.2110    0.1430    0.0274    0.0699
  S   N    4    0.1265    0.0957    0.1213    0.0678   -0.0903    0.0238   -0.0666    0.1455
  Px  N    4   -0.0137   -0.0354    0.0312   -0.2993   -0.1003   -0.1145    0.0406   -0.0903
  Py  N    4    0.1265    0.2117    0.3560   -0.0780   -0.1770   -0.0085   -0.2022    0.1522
  Pz  N    4   -0.0358    0.1451    0.0256    0.4038    0.2304    0.1857   -0.1036   -0.0574
  S   H    5   -0.3180   -0.0611    0.0579   -0.0255    0.0997   -0.2273   -0.2400   -0.0050
  S   H    6    0.1096    0.2016    0.0415    0.1282   -0.2587   -0.0054    0.1551   -0.0324
  S   C    7    0.0587   -0.0059    0.0121    0.0310    0.0091    0.0276    0.0418    0.0024
  Px  C    7   -0.1729    0.4011    0.0345    0.0146    0.0003   -0.3100    0.2587    0.0012
  Py  C    7    0.3039    0.1043   -0.2669   -0.0048   -0.0219    0.0057   -0.1170   -0.1159
  Pz  C    7    0.1457    0.1929    0.1600   -0.2426    0.3245    0.1821    0.0926   -0.2485
  S   C    8   -0.0153    0.0385   -0.0197   -0.0274    0.0759   -0.0317   -0.0474    0.0033
  Px  C    8   -0.3449    0.2668   -0.0673   -0.1672   -0.0262    0.1840    0.0845    0.1622
  Py  C    8   -0.0681   -0.2149    0.2887   -0.0451    0.1828    0.0681    0.0625    0.1133
  Pz  C    8    0.2265    0.1436   -0.0753   -0.1301    0.3240   -0.0633    0.0182    0.3650
  S   H    9   -0.1240   -0.2137   -0.0096    0.1640   -0.1928   -0.0501   -0.0407    0.2109
  S   H   10   -0.1334    0.2248    0.1615   -0.0411    0.0973   -0.1182    0.2406   -0.0289
  S   H   11    0.0793   -0.2342    0.1582    0.0848    0.0108   -0.0748   -0.0546   -0.1669
  S   H   12   -0.2804    0.0875   -0.0155   -0.0334   -0.1471    0.1114    0.0110   -0.1098
  S   C   13   -0.0095   -0.0407   -0.0124    0.0037    0.0176   -0.0056   -0.0150    0.0641
  Px  C   13   -0.2584    0.0998   -0.1465   -0.1168   -0.2458    0.4153   -0.1430   -0.1835
  Py  C   13   -0.0702   -0.2838    0.2816    0.1920   -0.1752    0.0859    0.3542   -0.1519
  Pz  C   13    0.1323   -0.0100   -0.1773    0.1574   -0.2280   -0.2625   -0.2245   -0.3354
  S   H   14   -0.0585    0.1241   -0.2362   -0.0704   -0.1290    0.0777   -0.2942   -0.1358
  S   H   15    0.1691   -0.1063    0.0321    0.1617   -0.0086   -0.3243    0.0285   -0.0535
  S   H   16   -0.1374   -0.1546    0.1576    0.0568   -0.1280    0.2241    0.2229   -0.0561
  S   C   17   -0.0207    0.0991    0.1200   -0.0135    0.0422   -0.0249   -0.0486   -0.1670
  Px  C   17   -0.0269   -0.1065   -0.0711   -0.1730   -0.0522   -0.1047    0.0930   -0.0488
  Py  C   17    0.0782    0.1126    0.1991   -0.0602   -0.0704   -0.0318   -0.0953   -0.0872
  Pz  C   17   -0.0369    0.0316   -0.0509    0.2365    0.1532    0.0818   -0.0086   -0.0940


   Root No.      17        18        19        20        21        22        23        24

                17 A      18 A      19 A      20 A      21 A      22 A      23 A      24 A   

               -12.097   -11.985   -11.810   -11.128   -10.264    -9.738    -0.892    -0.165
  
  S   C    1   -0.0069    0.0283    0.0545    0.0029   -0.0722   -0.0041    0.0138   -0.1070
  Px  C    1   -0.0736   -0.1216    0.1582   -0.0627    0.2635    0.0633   -0.0179    0.2226
  Py  C    1   -0.2105   -0.0960   -0.0202   -0.0009   -0.0927    0.0400    0.0016   -0.1362
  Pz  C    1    0.0750   -0.2943   -0.0594   -0.0266    0.1357   -0.0943   -0.0069    0.1063
  S   S    2   -0.0167   -0.1333    0.0177   -0.0403    0.2023   -0.0037   -0.0057    0.1601
  Px  S    2   -0.0948    0.2723   -0.1148    0.0636   -0.2735   -0.4329    0.1571    0.2388
  Py  S    2    0.0227    0.0301    0.0631    0.0323   -0.1766   -0.2434    0.0964    0.5226
  Pz  S    2    0.0238    0.1665   -0.1046    0.0584   -0.2269    0.7069   -0.2974    0.3096
  x2  S    2   -0.0313   -0.0080   -0.0128   -0.0007    0.0071    0.0275    0.0698    0.3007
  xz  S    2   -0.0087    0.0229   -0.0188    0.0094   -0.0422   -0.0291   -0.0309   -0.1173
  z2  S    2   -0.0050   -0.0307   -0.0077   -0.0090    0.0763    0.0004    0.1073    0.2503
  yz  S    2    0.0012    0.0158    0.0069   -0.0010    0.0295    0.0270    0.1701   -0.2189
  xy  S    2   -0.0078   -0.0233   -0.0055   -0.0131    0.1341   -0.0090   -0.1319    0.1253
  S   C    3    0.0194    0.0993   -0.0191    0.0089    0.0356   -0.0029    0.0065   -0.3173
  Px  C    3   -0.0170    0.2118   -0.1140    0.0047    0.4029   -0.0688   -0.3867   -0.0367
  Py  C    3   -0.0458   -0.0743   -0.0403   -0.0231    0.1517   -0.0340   -0.2232    0.3075
  Pz  C    3   -0.0512    0.1203   -0.0914   -0.0064    0.3163    0.0859    0.5977    0.1112
  S   N    4   -0.0337    0.1366   -0.0296    0.2442    0.1858   -0.0035   -0.0004   -0.0003
  Px  N    4    0.0705   -0.1348    0.0098   -0.4674   -0.2826    0.2029    0.2398    0.0269
  Py  N    4    0.0322    0.1125   -0.0350   -0.0659    0.1670    0.1055    0.1408   -0.0582
  Pz  N    4   -0.0049   -0.0265   -0.0046   -0.3297   -0.1334   -0.3026   -0.3727   -0.0163
  S   H    5    0.1907    0.0455    0.0092    0.0064    0.0274   -0.0725    0.0180    0.0629
  S   H    6   -0.0695   -0.2341    0.0209   -0.0280    0.0753   -0.0451    0.0167   -0.0662
  S   C    7    0.0838   -0.0036   -0.0025    0.0023    0.0090    0.0507   -0.0230    0.0026
  Px  C    7    0.0919    0.1578   -0.2443    0.0394   -0.1043   -0.1265    0.0347   -0.0164
  Py  C    7    0.4575    0.1179    0.1092   -0.0014    0.0430   -0.0076    0.0029   -0.0034
  Pz  C    7   -0.0846    0.3018   -0.0876    0.0138   -0.0382    0.0598   -0.0189   -0.0071
  S   C    8    0.0315    0.0052    0.0095    0.0000    0.0048    0.0093    0.0019    0.0025
  Px  C    8   -0.1855    0.0689    0.4610   -0.0489    0.0256   -0.0076   -0.0059    0.0025
  Py  C    8   -0.3717   -0.1912   -0.1995    0.0135   -0.0308    0.0276    0.0041   -0.0143
  Pz  C    8    0.2401   -0.2337    0.0055    0.0165    0.0171   -0.0327   -0.0014    0.0049
  S   H    9   -0.0919   -0.2976    0.0674   -0.0179    0.0457    0.0034   -0.0047    0.0114
  S   H   10   -0.1155    0.1393   -0.2440    0.0345   -0.1035   -0.0409    0.0145   -0.0422
  S   H   11   -0.1127   -0.0317   -0.3694    0.0348   -0.0357    0.0107    0.0007   -0.0036
  S   H   12   -0.2179    0.1849    0.2873   -0.0414    0.0099    0.0206   -0.0066    0.0017
  S   C   13    0.0067   -0.0452    0.0197   -0.0110   -0.0002   -0.0025    0.0007    0.0032
  Px  C   13    0.1590   -0.1011   -0.3524    0.0723    0.0120    0.0055   -0.0009   -0.0021
  Py  C   13    0.3228    0.2191    0.1000   -0.0139   -0.0006   -0.0080   -0.0006   -0.0012
  Pz  C   13   -0.2280    0.2498   -0.0004   -0.0315   -0.0272    0.0181   -0.0013   -0.0004
  S   H   14   -0.1343   -0.0706   -0.2387    0.0297   -0.0068    0.0127    0.0003   -0.0014
  S   H   15   -0.1568    0.1873    0.2377   -0.0491   -0.0112    0.0033   -0.0005   -0.0001
  S   H   16    0.3259    0.0407   -0.0333    0.0154    0.0105   -0.0100   -0.0003    0.0003
  S   C   17    0.0266   -0.1636    0.1536    0.4435   -0.1835    0.0040    0.0007   -0.0329
  Px  C   17   -0.0146   -0.0364    0.0649    0.4811    0.0734    0.1098    0.1004    0.0257
  Py  C   17    0.0488   -0.1354    0.1181    0.1272   -0.3753    0.0712    0.0546   -0.0342
  Pz  C   17   -0.0256   -0.0647    0.0849    0.3590   -0.0945   -0.1672   -0.1562   -0.0002


   Root No.      25        26        27        28        29        30        31        32

                25 A      26 A      27 A      28 A      29 A      30 A      31 A      32 A   

                -0.061     0.818     1.716     2.150     2.365     2.398     2.819     3.333
  
  S   C    1   -0.1981   -0.0012    0.0608   -0.0383   -0.0872   -0.0012   -0.0552    0.0040
  Px  C    1    0.3666   -0.0009   -0.1498   -0.0684    0.2403    0.0375    0.1691   -0.0249
  Py  C    1   -0.1564   -0.0005    0.0810   -0.0195   -0.1002   -0.0167   -0.0836    0.0223
  Pz  C    1    0.1731   -0.0010   -0.0602    0.0831    0.0956   -0.0059    0.0490    0.0253
  S   S    2    0.0624   -0.0000   -0.0558    0.0003    0.0919    0.0108    0.0089    0.0396
  Px  S    2    0.4880   -0.0069   -0.1118   -0.0044    0.1151   -0.0131    0.0553    0.0484
  Py  S    2   -0.3553   -0.0033    0.0138   -0.0098    0.0494   -0.0103   -0.1765    0.0695
  Pz  S    2    0.1578    0.0109   -0.0647    0.0088    0.0945    0.0475   -0.0275    0.0538
  x2  S    2   -0.3687   -0.0092    0.2482   -0.4518    0.0068    0.2759    0.3583   -0.1528
  xz  S    2   -0.2588    0.0046    0.2729    0.4631    0.7432   -0.1045    0.0898    0.0666
  z2  S    2    0.0605   -0.0205    0.2620    0.6676   -0.4476    0.3722   -0.0086   -0.0328
  yz  S    2    0.2146   -0.0256    0.2985   -0.2277    0.2508    0.6853   -0.3211    0.2305
  xy  S    2    0.2241    0.0174    0.6810   -0.1868   -0.1189   -0.4810   -0.2972    0.1718
  S   C    3    0.0523   -0.0007    0.0474    0.0035   -0.1645   -0.0225    0.3618    0.2942
  Px  C    3    0.0160    0.0252    0.1530    0.0025    0.0128    0.1209    0.2024   -0.3450
  Py  C    3   -0.1145    0.0144   -0.0690   -0.0026    0.0392    0.0736    0.0787    0.4913
  Pz  C    3   -0.0066   -0.0414    0.0690    0.0021    0.0559   -0.1884    0.1556   -0.0433
  S   N    4    0.0295   -0.0002    0.0386    0.0003    0.0345    0.0039   -0.0526   -0.2439
  Px  N    4    0.0778    0.2482    0.0722    0.0023    0.0585   -0.0350   -0.0941   -0.3369
  Py  N    4   -0.1476    0.1405   -0.2036   -0.0015   -0.0769   -0.0285   -0.0572    0.4523
  Pz  N    4   -0.0175   -0.3821   -0.0267   -0.0040   -0.0016    0.0653   -0.0810   -0.0539
  S   H    5   -0.0263   -0.0012    0.0734   -0.0572   -0.0015    0.0020   -0.0402    0.0160
  S   H    6    0.0176    0.0005   -0.0605   -0.0424   -0.0277    0.0099    0.0235   -0.0330
  S   C    7   -0.0136    0.0011    0.0097    0.0688   -0.0115   -0.0157   -0.0206    0.0125
  Px  C    7    0.0030   -0.0021   -0.0165   -0.1170    0.0278    0.0251    0.0352   -0.0192
  Py  C    7    0.0047   -0.0008    0.0024   -0.0119   -0.0135   -0.0005   -0.0120    0.0063
  Pz  C    7   -0.0104    0.0015    0.0116    0.1031   -0.0159   -0.0190   -0.0169    0.0159
  S   C    8    0.0030    0.0031   -0.0038    0.0100    0.0100    0.0017    0.0070    0.0012
  Px  C    8   -0.0006   -0.0038    0.0035   -0.0071   -0.0076   -0.0005   -0.0030   -0.0004
  Py  C    8   -0.0095    0.0026    0.0061   -0.0075   -0.0129   -0.0039   -0.0153    0.0101
  Pz  C    8    0.0019   -0.0017    0.0014    0.0062   -0.0006   -0.0003    0.0021    0.0030
  S   H    9    0.0185   -0.0002   -0.0091    0.0098    0.0163   -0.0010    0.0100    0.0056
  S   H   10   -0.0537    0.0002    0.0273   -0.0104   -0.0544   -0.0041   -0.0365    0.0047
  S   H   11   -0.0028   -0.0024   -0.0007   -0.0079   -0.0008    0.0021    0.0043   -0.0043
  S   H   12   -0.0018    0.0004    0.0062    0.0217   -0.0079   -0.0061   -0.0066    0.0063
  S   C   13    0.0010    0.0056    0.0023   -0.0023    0.0016    0.0000    0.0061    0.0054
  Px  C   13   -0.0005   -0.0076   -0.0040    0.0007    0.0001    0.0003   -0.0088   -0.0100
  Py  C   13   -0.0002    0.0027    0.0021    0.0038   -0.0019   -0.0005    0.0002    0.0058
  Pz  C   13   -0.0010    0.0063    0.0055    0.0087   -0.0018   -0.0014    0.0055    0.0141
  S   H   14   -0.0018   -0.0020    0.0004   -0.0006   -0.0004   -0.0000   -0.0021    0.0002
  S   H   15   -0.0013   -0.0035   -0.0020   -0.0021   -0.0003    0.0003   -0.0085   -0.0125
  S   H   16    0.0022    0.0002   -0.0020    0.0020    0.0017    0.0005    0.0039   -0.0009
  S   C   17   -0.0074   -0.0001   -0.0471   -0.0004   -0.0019    0.0017   -0.1041   -0.0120
  Px  C   17   -0.0202   -0.4561   -0.0699   -0.0029    0.0403   -0.0294   -0.2076   -0.1533
  Py  C   17    0.1549   -0.2586    0.2836    0.0041   -0.0530   -0.0371    0.5542    0.1284
  Pz  C   17    0.0397    0.7023    0.0627    0.0027   -0.0032    0.0552    0.0701   -0.0529


   Root No.      33        34        35        36        37        38        39        40

                33 A      34 A      35 A      36 A      37 A      38 A      39 A      40 A   

                 3.393     3.494     3.805     4.251     4.499     4.736     5.108     5.333
  
  S   C    1    0.0436    0.2386   -0.1214    0.0801   -0.0099   -0.0295   -0.2921   -0.4093
  Px  C    1    0.2880    0.2751   -0.0524    0.0382   -0.0100    0.1663    0.0488   -0.1030
  Py  C    1   -0.0291    0.1115    0.0921   -0.0261   -0.0226    0.5623    0.1136    0.0553
  Pz  C    1   -0.0955   -0.4245    0.1856   -0.0995   -0.0143    0.1377   -0.1566   -0.2273
  S   S    2   -0.0527    0.0192    0.0011   -0.0032    0.0057   -0.0018    0.0037   -0.0053
  Px  S    2    0.1408   -0.1143    0.0338   -0.0215   -0.0027   -0.0099    0.0306    0.0212
  Py  S    2   -0.2617    0.1141   -0.0345    0.0153   -0.0049   -0.0450   -0.0244   -0.0048
  Pz  S    2    0.0165    0.0284   -0.0059    0.0012   -0.0035   -0.0134    0.0244    0.0192
  x2  S    2    0.3952   -0.2997    0.0609   -0.0262    0.0028   -0.0368    0.0123    0.0120
  xz  S    2    0.1995    0.0009   -0.0006   -0.0056    0.0059   -0.0297    0.0460    0.0298
  z2  S    2    0.2257    0.0635   -0.0326    0.0153    0.0015   -0.0062    0.0099    0.0057
  yz  S    2   -0.1825    0.0082   -0.0115    0.0028    0.0040   -0.0304   -0.0246   -0.0068
  xy  S    2    0.1456   -0.0372   -0.0408    0.0168    0.0073   -0.0740   -0.0257   -0.0050
  S   C    3    0.1656   -0.0670    0.0116   -0.0145    0.1767    0.0173    0.0075   -0.0045
  Px  C    3   -0.2662    0.0958    0.0003    0.0018   -0.0343    0.0101   -0.0111   -0.0177
  Py  C    3   -0.2552    0.1240   -0.0289    0.0012    0.1504   -0.0072   -0.0034    0.0012
  Pz  C    3   -0.2658    0.0985   -0.0110    0.0049    0.0325    0.0050   -0.0146   -0.0083
  S   N    4   -0.0398    0.0087    0.0028   -0.0034    0.1672    0.0111   -0.0034   -0.0124
  Px  N    4   -0.0476    0.0086    0.0024   -0.0075    0.3476    0.0183   -0.0051   -0.0178
  Py  N    4    0.2329   -0.0767   -0.0016   -0.0104    0.2804    0.0070    0.0073    0.0002
  Pz  N    4    0.0544   -0.0194    0.0012   -0.0092    0.3273    0.0138    0.0021   -0.0134
  S   H    5    0.0157    0.1164    0.1700   -0.0659   -0.0142    0.5450    0.3178    0.3243
  S   H    6   -0.0010    0.0747   -0.1442    0.0434    0.0317   -0.4485    0.2613    0.4168
  S   C    7   -0.0796   -0.1253    0.2584   -0.1396    0.0043   -0.1190   -0.0554    0.1225
  Px  C    7    0.2100    0.4382   -0.0346    0.1411   -0.0014    0.0575   -0.3416    0.0204
  Py  C    7    0.0372    0.1797    0.5273   -0.2030    0.0030   -0.1629   -0.0569   -0.0226
  Pz  C    7   -0.1584   -0.3819    0.0791    0.0474    0.0034    0.0975   -0.3357    0.2001
  S   C    8   -0.0223   -0.0916   -0.1305    0.2948    0.0069    0.0173    0.0927   -0.0495
  Px  C    8    0.0248    0.0852    0.2049    0.1417    0.0140   -0.0675   -0.1473    0.2771
  Py  C    8    0.0370    0.1901    0.5862    0.0290    0.0072   -0.1660    0.0536   -0.1043
  Pz  C    8   -0.0353   -0.1009    0.0521    0.5643    0.0160    0.0226    0.1830   -0.0830
  S   H    9   -0.0078   -0.0520    0.1573    0.1350    0.0009    0.1273   -0.3767    0.0647
  S   H   10   -0.0482   -0.0073    0.0840   -0.1654   -0.0028   -0.0912    0.4127   -0.1943
  S   H   11    0.0127    0.0097   -0.0473    0.1484    0.0101    0.0316   -0.1628    0.2838
  S   H   12   -0.0549   -0.1178    0.0337    0.0740   -0.0062    0.0453    0.1862   -0.2392
  S   C   13    0.0076    0.0147   -0.0880   -0.2115   -0.0217    0.0282   -0.0619   -0.0156
  Px  C   13   -0.0004   -0.0030    0.0809    0.1972    0.0351   -0.0458    0.0128    0.2041
  Py  C   13   -0.0073   -0.0021    0.1587    0.2563    0.0057   -0.0505    0.0748   -0.1061
  Pz  C   13   -0.0200   -0.0346    0.1805    0.4730   -0.0033   -0.0024    0.0996   -0.0801
  S   H   14    0.0039    0.0183    0.0214   -0.1068   -0.0069   -0.0151    0.0247   -0.1785
  S   H   15    0.0097    0.0167   -0.0133   -0.0761    0.0321   -0.0370   -0.0572    0.2447
  S   H   16   -0.0117   -0.0451   -0.1188    0.0049   -0.0079    0.0609    0.0097   -0.0080
  S   C   17    0.1035   -0.0414    0.0062    0.0100   -0.3755   -0.0161    0.0038    0.0114
  Px  C   17    0.0840   -0.0358    0.0026   -0.0125    0.5456    0.0250    0.0006   -0.0299
  Py  C   17   -0.3288    0.1251   -0.0116   -0.0037    0.1036    0.0062   -0.0055   -0.0018
  Pz  C   17   -0.0656    0.0257   -0.0025   -0.0105    0.3925    0.0200   -0.0040   -0.0152


   Root No.      41        42        43        44        45        46

                41 A      42 A      43 A      44 A      45 A      46 A   

                 5.438     5.745     5.856     5.972     6.214     6.777
  
  S   C    1    0.1818    0.0452   -0.0240    0.0667   -0.0274   -0.0335
  Px  C    1    0.0461    0.0358   -0.0607    0.0073   -0.0171   -0.0051
  Py  C    1    0.0455   -0.0503    0.0215    0.0032    0.0279   -0.0024
  Pz  C    1    0.2256   -0.0156    0.0622    0.0383   -0.0023   -0.0315
  S   S    2    0.0047   -0.0001    0.0006    0.0011    0.0018   -0.0006
  Px  S    2   -0.0034   -0.0050    0.0053   -0.0030    0.0083    0.0016
  Py  S    2   -0.0126    0.0018   -0.0037    0.0012    0.0052    0.0011
  Pz  S    2   -0.0113    0.0100   -0.0144   -0.0086   -0.0074    0.0026
  x2  S    2   -0.0033   -0.0026    0.0063   -0.0015    0.0035    0.0009
  xz  S    2   -0.0144    0.0110   -0.0142   -0.0099   -0.0079    0.0024
  z2  S    2   -0.0132    0.0040   -0.0075   -0.0011   -0.0013    0.0009
  yz  S    2    0.0027   -0.0015    0.0057    0.0026   -0.0018   -0.0012
  xy  S    2   -0.0134    0.0016   -0.0016    0.0018    0.0030    0.0001
  S   C    3    0.0028   -0.0020    0.0028    0.0010    0.0030    0.0002
  Px  C    3    0.0043   -0.0005    0.0005    0.0015    0.0076    0.0031
  Py  C    3   -0.0047    0.0014   -0.0038    0.0009    0.0001   -0.0012
  Pz  C    3    0.0073    0.0010    0.0015   -0.0002   -0.0054   -0.0008
  S   N    4   -0.0009    0.0016    0.0048   -0.0057    0.0015    0.0056
  Px  N    4   -0.0015    0.0027    0.0073   -0.0087    0.0002    0.0069
  Py  N    4   -0.0046    0.0010    0.0033   -0.0045   -0.0014    0.0024
  Pz  N    4   -0.0056    0.0026    0.0062   -0.0086    0.0031    0.0083
  S   H    5   -0.1057   -0.0587    0.0205   -0.0366    0.0297    0.0173
  S   H    6   -0.3071   -0.0111   -0.0077   -0.0818    0.0136    0.0644
  S   C    7    0.0803   -0.2255    0.4907    0.1036    0.0107   -0.0309
  Px  C    7   -0.2167   -0.0892    0.1341    0.1054    0.0051   -0.0039
  Py  C    7   -0.0580    0.2092   -0.1755   -0.0629   -0.0924    0.0124
  Pz  C    7   -0.2843   -0.0001   -0.1428   -0.0359    0.0673    0.0412
  S   C    8    0.0871   -0.1284   -0.1331   -0.0404    0.5398   -0.0179
  Px  C    8    0.3829    0.0418    0.0278   -0.3410   -0.0275   -0.0347
  Py  C    8   -0.0959   -0.0113    0.1336    0.1364    0.1822   -0.0672
  Pz  C    8   -0.0195    0.0018    0.0128    0.0691   -0.3028   -0.1058
  S   H    9   -0.3491    0.1943   -0.4378   -0.0855    0.0191    0.0391
  S   H   10    0.1919    0.2909   -0.4083   -0.1288   -0.0515    0.0239
  S   H   11    0.2852    0.1228    0.0629   -0.2388   -0.5259   -0.0036
  S   H   12   -0.3673    0.0485    0.0970    0.2954   -0.4608   -0.0133
  S   C   13    0.0187    0.0117    0.0367    0.0500   -0.0513    0.6275
  Px  C   13    0.2148   -0.0021   -0.1890    0.4942    0.0292    0.0483
  Py  C   13    0.0227   -0.4858   -0.1935   -0.1606   -0.0798    0.1286
  Pz  C   13    0.0156    0.2504    0.2071   -0.0975    0.1830    0.1769
  S   H   14   -0.1728   -0.4122   -0.0802   -0.3992   -0.0913   -0.3928
  S   H   15    0.1909   -0.0794   -0.2664    0.4378   -0.0267   -0.4480
  S   H   16   -0.1233    0.5041    0.2773   -0.1242    0.1489   -0.4140
  S   C   17    0.0003   -0.0015   -0.0027    0.0028    0.0004   -0.0002
  Px  C   17   -0.0105    0.0057    0.0166   -0.0216    0.0054    0.0230
  Py  C   17    0.0042   -0.0014   -0.0031    0.0056   -0.0004   -0.0052
  Pz  C   17   -0.0003    0.0026    0.0055   -0.0078   -0.0020    0.0044

           SUPERDELOCALIZABILITIES

 Mulliken electronegativity:        5.314602
 Parr & Pople absolute hardness:    4.423005
 Schuurmann MO shift alpha:        -5.314602
 
 Ehomo:                            -9.737607
 Elumo:                            -0.891597


  a   n        Dn(r)        De(r)   q(r) - Z(r)

  C   1    -0.443051    -0.426726    -4.334965
  S   2    -1.798557    -0.745654    -5.759604
  C   3    -1.089069    -0.013564    -0.108875
  N   4    -0.670889    -0.317421    -3.312139
  C   7    -0.475333    -0.525419    -4.327004
  C   8    -0.404605    -0.378252    -3.995367
  C  13    -0.413520    -0.389782    -3.620546
  C  17    -0.373134    -0.443321    -3.920108

 Total:    -5.668158    -3.240139

  a   n        piS(r)

  C   1    -0.203673
  S   2    -0.238467
  C   3    -0.228928
  N   4    -0.198309
  C   7    -0.193468
  C   8    -0.192049
  C  13    -0.186214
  C  17    -0.208481

 Total:    -1.649590

  a   n       homo-1         homo         lumo       lumo+1

  C   1    10.165849     1.452189     0.056199     9.086426
  S   2    22.492639    74.886174    18.611426    68.204187
  C   3     0.852068     0.233454     4.624828    21.475638
  N   4    20.458111     0.597368    21.679536    21.225345
  C   7    12.628357    14.910072    21.654760     0.833582
  C   8     1.847739     2.065057     0.201738     0.467435
  C  13     1.437445     0.286410     0.023550     0.194730
  C  17     0.091271     0.056471     0.000234     0.000360


              NET ATOMIC CHARGES AND DIPOLE CONTRIBUTIONS

  ATOM NO.   TYPE          CHARGE      No. of ELECS.   s-Pop       p-Pop       d-Pop       
    1          C          -0.334965        4.3350     1.11500     3.21996
    2          S           0.240396        5.7596     1.90774     3.69611     0.15575
    3          C          -0.219812        4.2198     1.17075     3.04907
    4          N          -0.302208        5.3022     1.80831     3.49390
    5          H           0.166897        0.8331     0.83310
    6          H           0.181615        0.8184     0.81838
    7          C          -0.251294        4.2513     1.08608     3.16521
    8          C          -0.219655        4.2197     1.08079     3.13887
    9          H           0.139240        0.8608     0.86076
   10          H           0.142448        0.8576     0.85755
   11          H           0.133625        0.8664     0.86638
   12          H           0.129409        0.8706     0.87059
   13          C          -0.466108        4.4661     1.08224     3.38387
   14          H           0.146327        0.8537     0.85367
   15          H           0.157847        0.8422     0.84215
   16          H           0.150981        0.8490     0.84902
   17          C           0.205258        3.7947     1.66324     2.13150
 DIPOLE           X         Y         Z       TOTAL
 POINT-CHG.     3.239    -3.019     0.534     4.460
 HYBRID        -0.502    -1.097    -0.691     1.390
 SUM            2.737    -4.116    -0.157     4.945


          ATOMIC ORBITAL ELECTRON POPULATIONS

     Atom    s        px        py        pz      x^2-y^2     xz        z^2       yz        xy
    1  C   1.11500   0.97846   1.14264   1.09886
    2  S   1.90774   1.22515   0.93350   1.53747   0.04602   0.01838   0.02138   0.02310   0.04687
    3  C   1.17075   1.13639   0.95813   0.95455
    4  N   1.80831   1.23567   1.08042   1.17781
    5  H   0.83310
    6  H   0.81838
    7  C   1.08608   1.03975   1.05116   1.07431
    8  C   1.08079   1.11861   0.98440   1.03586
    9  H   0.86076
   10  H   0.85755
   11  H   0.86638
   12  H   0.87059
   13  C   1.08224   1.15959   1.13382   1.09046
   14  H   0.85367
   15  H   0.84215
   16  H   0.84902
   17  C   1.66324   0.79530   0.72395   0.61226

          BONDING CONTRIBUTION OF EACH M.O.

  1.6502  1.2602  1.7320  1.9057  1.9554  1.9505  0.7362  1.5091  1.8893  1.8737
  1.9442  2.0322  1.9328  1.9523  1.8950  1.5844  1.9834  1.6814  1.8661  0.6514
  1.3649  0.9150 -1.7616 -1.3030 -1.0622 -1.0861 -0.5373 -0.1025 -0.4656 -0.1540
 -1.3599 -1.6927 -1.5141 -1.8217 -1.9631 -1.9978 -1.8464 -1.9356 -1.9477 -1.9451
 -1.9633 -1.9612 -1.9637 -1.9886 -1.9671 -1.9251





            (VALENCIES)   BOND ORDERS

     1  C     (3.938)     7  C 1.000     2  S 0.995     5  H 0.953     6  H 0.952     4  N 0.011     3  C 0.011
 
     2  S     (2.530)     3  C 1.317     1  C 0.995     4  N 0.120    17  C 0.063
 
     3  C     (3.757)     4  N 1.416     2  S 1.317    17  C 1.004     1  C 0.011
 
     4  N     (2.937)     3  C 1.416    17  C 1.388     2  S 0.120     1  C 0.011
 
     5  H     (0.972)     1  C 0.953
 
     6  H     (0.967)     1  C 0.952
 
     7  C     (3.957)     8  C 1.001     1  C 1.000     9  H 0.969    10  H 0.964
 
     8  C     (3.963)    13  C 1.008     7  C 1.001    12  H 0.972    11  H 0.971
 
     9  H     (0.981)     7  C 0.969
 
    10  H     (0.980)     7  C 0.964
 
    11  H     (0.982)     8  C 0.971
 
    12  H     (0.983)     8  C 0.972
 
    13  C     (3.928)     8  C 1.008    14  H 0.972    16  H 0.969    15  H 0.967
 
    14  H     (0.979)    13  C 0.972
 
    15  H     (0.975)    13  C 0.967
 
    16  H     (0.977)    13  C 0.969
 
    17  C     (2.461)     4  N 1.388     3  C 1.004     2  S 0.063
 




 SELF-Q:    SELF OR INACTIVE CHARGE
 ACTIV-Q:   CHARGE WHICH IS USED TO FORM BONDS
 TOTAL-Q:   SELF-Q + ACTIV-Q
 FREE-VA:   TOTAL-Q - VALENCE
 STAT.PROM: TOTAL-Q - CORE CHARGE
 MULL.PROM: -CHARGE (SEE ABOVE)

       SELF-Q    ACTIV-Q   TOTAL-Q   VALENCE   FREE-VA STAT.PROM MULL.PROM


   1   0.39715   3.93781   4.33496   3.93781  -0.00000   0.33496   0.33496

   2   3.22974   2.52986   5.75960   2.52986  -0.00000  -0.24040  -0.24040

   3   0.46291   3.75690   4.21981   3.75690  -0.00000   0.21981   0.21981

   4   2.36492   2.93729   5.30221   2.93729  -0.00000   0.30221   0.30221

   5  -0.13904   0.97215   0.83310   0.97215  -0.00000  -0.16690  -0.16690

   6  -0.14863   0.96702   0.81838   0.96702  -0.00000  -0.18162  -0.18162

   7   0.29457   3.95673   4.25129   3.95673  -0.00000   0.25129   0.25129

   8   0.25715   3.96250   4.21966   3.96250   0.00000   0.21966   0.21966

   9  -0.11985   0.98061   0.86076   0.98061  -0.00000  -0.13924  -0.13924

  10  -0.12216   0.97971   0.85755   0.97971  -0.00000  -0.14245  -0.14245

  11  -0.11577   0.98214   0.86638   0.98214  -0.00000  -0.13362  -0.13362

  12  -0.11266   0.98325   0.87059   0.98325  -0.00000  -0.12941  -0.12941

  13   0.53834   3.92777   4.46611   3.92777   0.00000   0.46611   0.46611

  14  -0.12492   0.97859   0.85367   0.97859   0.00000  -0.14633  -0.14633

  15  -0.13293   0.97508   0.84215   0.97508   0.00000  -0.15785  -0.15785

  16  -0.12819   0.97720   0.84902   0.97720  -0.00000  -0.15098  -0.15098

  17   1.33389   2.46086   3.79474   2.46086  -0.00000  -0.20526  -0.20526

 CLOSED SHELL





          TOTAL ENERGY PARTITIONING

          ALL ENERGIES ARE IN ELECTRON VOLTS

            ONE-CENTER TERMS 
          E-E:  ELECTRON-ELECTRON REPULSION
          E-N:  ELECTRON-NUCLEAR ATTRACTION


   ATOM      E-E       E-N    (E-E + E-N)
   C   1    85.1628 -185.5637 -100.4010
   S   2    80.2243 -242.7431 -162.5188
   C   3    80.7580 -181.5864 -100.8284
   N   4   115.5583 -278.8141 -163.2557
   H   5     2.5071   -9.3699   -6.8628
   H   6     2.4193   -9.2043   -6.7851
   C   7    81.8757 -181.8995 -100.0239
   C   8    80.6804 -180.5769  -99.8966
   H   9     2.6763   -9.6809   -7.0046
   H  10     2.6564   -9.6448   -6.9885
   H  11     2.7113   -9.7441   -7.0328
   H  12     2.7378   -9.7915   -7.0537
   C  13    90.0366 -190.4359 -100.3993
   H  14     2.6324   -9.6012   -6.9688
   H  15     2.5618   -9.4717   -6.9098
   H  16     2.6038   -9.5489   -6.9451
   C  17    64.8896 -170.1021 -105.2125

              TWO-CENTER TERMS
           
          J:   RESONANCE ENERGY          E-E: ELECTRON-ELECTRON REPULSION
          K:   EXCHANGE ENERGY           E-N: ELECTRON-NUCLEAR ATTRACTION
                                         N-N: NUCLEAR-NUCLEAR REPULSION
          C:   COULOMBIC INTERACTION = E-E + E-N + N-N
          EE:  TOTAL OF ELECTRONIC AND NUCLEAR ENERGIES


     ATOM          J        K       E-E       E-N      N-N      C        EE
     PAIR
 
  S    2  C    1   -9.2995  -4.3835 155.2321 -309.8043 157.2510  2.6788 -11.0042
 
  C    3  C    1    0.1368  -0.0311  90.2392 -168.4341  78.6628  0.4679   0.5736
  C    3  S    2  -14.1143  -6.0042 160.9228 -326.2468 170.5294  5.2054 -14.9131
 
  N    4  C    1   -0.0047  -0.0210  77.1195 -144.7752  67.9300  0.2742   0.2486
  N    4  S    2    0.1009  -0.2679 137.6099 -275.6003 137.7707 -0.2198  -0.3867
  N    4  C    3  -16.4044  -7.0181 172.5706 -335.9524 170.9781  7.5962 -15.8262
 
  H    5  C    1  -11.1543  -5.2852  33.6628  -71.9929  42.7236  4.3934 -12.0460
  H    5  S    2   -0.0315  -0.0234  25.3735  -57.0568  32.1155  0.4321   0.3772
  H    5  C    3   -0.0084  -0.0089  13.6991  -29.3561  15.4995 -0.1575  -0.1748
  H    5  N    4    0.0001  -0.0006  12.5517  -27.0003  14.3249 -0.1237  -0.1243
 
  H    6  C    1  -11.1400  -5.2773  33.0998  -71.4714  42.7188  4.3472 -12.0701
  H    6  S    2   -0.0076  -0.0175  24.2922  -55.2945  31.4442  0.4419   0.4168
  H    6  C    3    0.0167  -0.0037  17.1370  -37.0165  19.6512 -0.2284  -0.2153
  H    6  N    4   -0.0003  -0.0003  14.8261  -32.2602  17.2826 -0.1515  -0.1521
  H    6  H    5   -0.0838  -0.0035   4.8221  -11.6803   7.1569  0.2987   0.2114

   ATOM          J        K       E-E       E-N      N-N      C        EE
   PAIR
  C    7  C    1  -11.8125  -5.1749 138.6308 -262.1400 128.2468  4.7375 -12.2498
  C    7  S    2    0.0790  -0.0213 114.2520 -227.6389 113.1856 -0.2014  -0.1437
  C    7  C    3   -0.0002  -0.0055  69.7105 -131.4496  61.9651  0.2261   0.2204
  C    7  N    4    0.0000  -0.0016  64.7469 -122.6117  58.0475  0.1827   0.1812
  C    7  H    5    0.0120  -0.0002  21.0122  -45.0878  23.9701 -0.1055  -0.0936
  C    7  H    6   -0.0060  -0.0004  20.6362  -44.7403  23.9822 -0.1219  -0.1284

   ATOM          J        K       E-E       E-N      N-N      C        EE
   PAIR
  C    8  C    1    0.0752  -0.0067  93.9931 -176.3059  82.7963  0.4835   0.5519
  C    8  S    2    0.0124  -0.0021  97.4695 -194.4400  96.7533 -0.2173  -0.2069
  C    8  C    3    0.0009  -0.0005  70.9035 -134.0549  63.3619  0.2104   0.2109
  C    8  N    4    0.0000  -0.0001  68.8956 -130.8342  62.1137  0.1751   0.1750
  C    8  H    5   -0.0123  -0.0108  13.7467  -29.5595  15.6751 -0.1377  -0.1609
  C    8  H    6    0.0114  -0.0011  16.5760  -36.0121  19.2591 -0.1770  -0.1666
  C    8  C    7  -11.5288  -5.1447 134.4720 -257.3733 127.2980  4.3968 -12.2767

   ATOM          J        K       E-E       E-N      N-N      C        EE
   PAIR
  H    9  C    1    0.0316  -0.0015  22.2448  -46.4261  24.0407 -0.1407  -0.1106
  H    9  S    2    0.0054  -0.0022  22.4616  -49.5111  27.2320  0.1824   0.1857
  H    9  C    3   -0.0002  -0.0001  12.6957  -26.7375  13.9274 -0.1145  -0.1147
  H    9  N    4    0.0000  -0.0000  12.2441  -25.8511  13.5071 -0.0999  -0.0999
  H    9  H    5    0.0025  -0.0000   3.7664   -8.8967   5.2575  0.1273   0.1297
  H    9  H    6   -0.0168  -0.0089   3.1135   -7.4215   4.4200  0.1120   0.0862
  H    9  C    7  -11.1760  -5.3660  34.1140  -72.2534  42.6959  4.5565 -11.9855
  H    9  C    8    0.0119  -0.0005  21.6805  -45.8064  24.0849 -0.0410  -0.0297

   ATOM          J        K       E-E       E-N      N-N      C        EE
   PAIR
  H   10  C    1   -0.0051  -0.0032  22.3708  -46.7744  24.2656 -0.1380  -0.1464
  H   10  S    2   -0.0165  -0.0167  17.9709  -39.7662  21.9359  0.1406   0.1074
  H   10  C    3    0.0002  -0.0006  11.2998  -23.8255  12.4176 -0.1082  -0.1086
  H   10  N    4   -0.0000  -0.0003  10.9821  -23.2414  12.1683 -0.0909  -0.0912
  H   10  H    5    0.0056  -0.0001   3.8997   -9.2283   5.4672  0.1385   0.1440
  H   10  H    6    0.0023  -0.0000   3.6952   -8.8243   5.2707  0.1416   0.1439
  H   10  C    7  -11.0890  -5.3303  33.9402  -72.0401  42.6220  4.5221 -11.8971
  H   10  C    8    0.0044  -0.0003  21.5786  -45.7043  24.0840 -0.0417  -0.0376
  H   10  H    9   -0.0646  -0.0020   5.2436  -12.2064   7.1907  0.2278   0.1612

   ATOM          J        K       E-E       E-N      N-N      C        EE
   PAIR
  H   11  C    1    0.0110  -0.0010  17.7552  -36.9126  18.9547 -0.2027  -0.1927
  H   11  S    2   -0.0239  -0.0018  22.3842  -49.2044  26.9972  0.1770   0.1513
  H   11  C    3   -0.0098  -0.0007  17.2936  -36.3091  18.8727 -0.1427  -0.1533
  H   11  N    4    0.0000  -0.0000  16.9605  -35.7202  18.6335 -0.1262  -0.1262
  H   11  H    5   -0.0002  -0.0000   2.5887   -6.0953   3.5866  0.0800   0.0797
  H   11  H    6   -0.0003  -0.0000   3.0657   -7.2846   4.3239  0.1051   0.1048
  H   11  C    7    0.0291  -0.0010  21.8845  -45.8989  23.9450 -0.0694  -0.0412
  H   11  C    8  -11.2040  -5.3824  34.1165  -72.2428  42.7558  4.6296 -11.9569
  H   11  H    9    0.0039  -0.0001   3.9582   -9.1671   5.3137  0.1048   0.1086
  H   11  H   10   -0.0170  -0.0089   3.2911   -7.6365   4.4300  0.0845   0.0586

   ATOM          J        K       E-E       E-N      N-N      C        EE
   PAIR
  H   12  C    1   -0.0135  -0.0120  14.8563  -30.7885  15.7638 -0.1683  -0.1938
  H   12  S    2   -0.0002  -0.0001  16.2303  -35.5836  19.4590  0.1057   0.1054
  H   12  C    3    0.0000  -0.0000  11.5152  -24.1001  12.4895 -0.0954  -0.0954
  H   12  N    4   -0.0000  -0.0000  11.9058  -24.9796  12.9844 -0.0895  -0.0895
  H   12  H    5    0.0003  -0.0002   2.3506   -5.5215   3.2409  0.0700   0.0701
  H   12  H    6   -0.0005  -0.0001   2.5946   -6.1507   3.6417  0.0856   0.0850
  H   12  C    7    0.0135  -0.0017  22.1959  -46.4112  24.1602 -0.0551  -0.0434
  H   12  C    8  -11.1728  -5.3796  34.2397  -72.3238  42.6979  4.6138 -11.9386
  H   12  H    9    0.0047  -0.0001   4.0995   -9.4716   5.4796  0.1076   0.1121
  H   12  H   10    0.0052  -0.0001   4.0051   -9.2708   5.3716  0.1059   0.1110
  H   12  H   11   -0.0568  -0.0015   5.3651  -12.3552   7.2008  0.2107   0.1524

   ATOM          J        K       E-E       E-N      N-N      C        EE
   PAIR
  C   13  C    1    0.0157  -0.0033  84.4709 -153.7003  69.9158  0.6864   0.6988
  C   13  S    2    0.0004  -0.0001  86.0351 -167.3154  80.8512 -0.4290  -0.4288
  C   13  C    3    0.0012  -0.0004  70.0187 -128.6293  59.0393  0.4287   0.4295
  C   13  N    4   -0.0001  -0.0004  70.5976 -130.4379  60.1942  0.3539   0.3534
  C   13  H    5   -0.0002  -0.0001  12.7291  -26.6876  13.6940 -0.2645  -0.2648
  C   13  H    6   -0.0142  -0.0009  17.8520  -37.8089  19.5511 -0.4058  -0.4208
  C   13  C    7    0.0823  -0.0074  97.9080 -180.2976  83.0995  0.7099   0.7848
  C   13  C    8  -11.7096  -5.2031 141.4544 -264.6572 127.9943  4.7915 -12.1211
  C   13  H    9   -0.0129  -0.0109  15.1257  -31.1484  15.7720 -0.2507  -0.2744
  C   13  H   10    0.0088  -0.0008  18.3986  -37.9628  19.2548 -0.3094  -0.3014
  C   13  H   11    0.0237  -0.0004  23.0959  -47.4333  24.1118 -0.2257  -0.2024
  C   13  H   12    0.0204  -0.0005  23.2286  -47.5762  24.1344 -0.2133  -0.1933

   ATOM          J        K       E-E       E-N      N-N      C        EE
   PAIR
  H   14  C    1    0.0002  -0.0000  15.0521  -31.5144  16.2618 -0.2005  -0.2003
  H   14  S    2   -0.0000  -0.0000  14.4368  -32.0319  17.7123  0.1172   0.1171
  H   14  C    3   -0.0000  -0.0000  11.1104  -23.4741  12.2521 -0.1116  -0.1116
  H   14  N    4    0.0000  -0.0000  11.3699  -24.1286  12.6628 -0.0960  -0.0960
  H   14  H    5    0.0001  -0.0000   2.4022   -5.6974   3.3777  0.0825   0.0825
  H   14  H    6   -0.0024  -0.0001   3.2485   -7.7748   4.6505  0.1242   0.1217
  H   14  C    7    0.0111  -0.0012  17.5927  -37.1711  19.4073 -0.1711  -0.1612
  H   14  C    8    0.0064  -0.0004  21.3463  -45.3244  23.9236 -0.0545  -0.0486
  H   14  H    9   -0.0004  -0.0000   2.7061   -6.3139   3.6828  0.0750   0.0746
  H   14  H   10   -0.0109  -0.0007   3.8129   -8.9127   5.2130  0.1132   0.1016
  H   14  H   11   -0.0173  -0.0091   3.2781   -7.6236   4.4324  0.0869   0.0605
  H   14  H   12    0.0030  -0.0001   3.8612   -8.9583   5.1998  0.1028   0.1057
  H   14  C   13  -11.3338  -5.4117  35.6675  -74.3664  43.1610  4.4621 -12.2834

   ATOM          J        K       E-E       E-N      N-N      C        EE
   PAIR
  H   15  C    1   -0.0030  -0.0002  17.0719  -36.0138  18.6951 -0.2467  -0.2499
  H   15  S    2   -0.0005  -0.0000  17.8021  -39.8354  22.2026  0.1692   0.1687
  H   15  C    3   -0.0040  -0.0002  15.9214  -33.8489  17.7449 -0.1826  -0.1868
  H   15  N    4    0.0000  -0.0000  15.6249  -33.4561  17.6957 -0.1355  -0.1355
  H   15  H    5   -0.0000  -0.0000   2.5186   -6.0138   3.5898  0.0946   0.0946
  H   15  H    6   -0.0375  -0.0029   4.0078   -9.6563   5.8330  0.1846   0.1442
  H   15  C    7    0.0055  -0.0003  16.6307  -35.4315  18.6256 -0.1752  -0.1699
  H   15  C    8    0.0059  -0.0003  21.0601  -45.0467  23.9164 -0.0702  -0.0647
  H   15  H    9   -0.0002  -0.0000   2.5821   -6.0659   3.5621  0.0783   0.0781
  H   15  H   10   -0.0001  -0.0000   3.0168   -7.1002   4.1774  0.0940   0.0939
  H   15  H   11    0.0106  -0.0005   3.9115   -9.1594   5.3679  0.1200   0.1302
  H   15  H   12   -0.0174  -0.0091   3.2535   -7.6005   4.4378  0.0909   0.0645
  H   15  C   13  -11.2618  -5.3768  35.1578  -73.8453  43.0640  4.3765 -12.2621
  H   15  H   14   -0.0635  -0.0020   5.0949  -12.0182   7.1725  0.2492   0.1837

   ATOM          J        K       E-E       E-N      N-N      C        EE
   PAIR
  H   16  C    1   -0.0004  -0.0002  12.3895  -26.0253  13.4656 -0.1702  -0.1707
  H   16  S    2    0.0000  -0.0000  13.9006  -30.9209  17.1356  0.1152   0.1152
  H   16  C    3   -0.0000  -0.0000  11.6518  -24.7098  12.9396 -0.1184  -0.1184
  H   16  N    4    0.0000  -0.0000  12.6149  -26.8470  14.1207 -0.1114  -0.1114
  H   16  H    5   -0.0000  -0.0000   1.9426   -4.6199   2.7465  0.0692   0.0692
  H   16  H    6    0.0002  -0.0000   2.5482   -6.1150   3.6674  0.1006   0.1007
  H   16  C    7   -0.0133  -0.0119  14.2010  -30.1003  15.7523 -0.1470  -0.1722
  H   16  C    8   -0.0047  -0.0007  21.3327  -45.4155  24.0244 -0.0584  -0.0638
  H   16  H    9    0.0003  -0.0002   2.3731   -5.5520   3.2472  0.0683   0.0684
  H   16  H   10   -0.0003  -0.0000   2.6916   -6.3091   3.6969  0.0795   0.0792
  H   16  H   11    0.0012  -0.0000   3.8784   -9.0446   5.2781  0.1119   0.1130
  H   16  H   12    0.0097  -0.0003   4.0207   -9.3541   5.4480  0.1146   0.1240
  H   16  C   13  -11.2868  -5.3914  35.4433  -74.1229  43.0989  4.4193 -12.2589
  H   16  H   14   -0.0721  -0.0025   5.1470  -12.0915   7.1881  0.2436   0.1690
  H   16  H   15   -0.0819  -0.0032   5.0901  -12.0395   7.2073  0.2579   0.1728

   ATOM          J        K       E-E       E-N      N-N      C        EE
   PAIR
  C   17  C    1    0.0081  -0.0092  60.5483 -120.3915  59.5489 -0.2943  -0.2954
  C   17  S    2    0.0805  -0.1319  91.0809 -194.0717 103.4289  0.4381   0.3868
  C   17  C    3  -11.0063  -4.8638 119.9102 -246.4964 131.2732  4.6869 -11.1832
  C   17  N    4  -16.2465  -6.9057 152.6880 -316.0288 170.3263  6.9855 -16.1666
  C   17  H    5   -0.0001  -0.0001   9.4869  -21.4825  12.1175  0.1219   0.1216
  C   17  H    6   -0.0027  -0.0003  12.7811  -29.1333  16.5153  0.1631   0.1601
  C   17  C    7   -0.0002  -0.0005  50.7482 -101.7073  50.7819 -0.1772  -0.1780
  C   17  C    8    0.0002  -0.0000  56.6173 -113.5432  56.7537 -0.1722  -0.1720
  C   17  H    9   -0.0000  -0.0000   9.0264  -20.0938  11.1614  0.0940   0.0939
  C   17  H   10    0.0000  -0.0001   8.7341  -19.4190  10.7679  0.0830   0.0830
  C   17  H   11   -0.0011  -0.0000  13.3751  -29.6673  16.4241  0.1318   0.1308
  C   17  H   12   -0.0000  -0.0000   9.4595  -20.8587  11.4785  0.0793   0.0793
  C   17  C   13    0.0004  -0.0006  64.5093 -125.1792  60.3684 -0.3015  -0.3017
  C   17  H   14    0.0000  -0.0000  10.1152  -22.4177  12.3803  0.0777   0.0778
  C   17  H   15   -0.0200  -0.0018  15.7250  -34.9907  19.3822  0.1165   0.0947
  C   17  H   16   -0.0000  -0.0000  11.4407  -25.3973  14.0423  0.0856   0.0856
 

                    Total contribution from hydrogen bonds:         0.000 disp.:    0.000 Tot:     0.000 kcal/mol




***  SUMMARY OF ENERGY PARTITION  ***
 ---------------------------------------
     ONE-CENTER TERMS

 ELECTRON-NUCLEAR  (ONE-ELECTRON)        -1697.7790 EV
 ELECTRON-ELECTRON (TWO-ELECTRON)          702.6916 EV

 TOTAL OF ONE-CENTER TERMS                -995.0874 EV
 ---------------------------------------
     TWO-CENTER TERMS

 RESONANCE ENERGY                         -202.8289 EV
 EXCHANGE ENERGY                           -93.6086 EV

 EXCHANGE + RESONANCE ENERGY:             -296.4375 EV

 ELECTRON-ELECTRON REPULSION              4250.0866 EV
 ELECTRON-NUCLEAR ATTRACTION             -8580.3182 EV
 NUCLEAR-NUCLEAR REPULSION                4414.9853 EV

 TOTAL ELECTROSTATIC INTERACTION            84.7538 EV

 GRAND TOTAL OF TWO-CENTER TERMS          -211.6837 EV
 ---------------------------------------
 ETOT (EONE + ETWO)                      -1206.7711 EV


 ******************** TDHF POLARIZABILITIES ********************



          MOLECULAR WEIGHT =  127.20



          ROTATIONAL CONSTANTS IN CM(-1)

          A =    0.08032953   B =    0.04417874   C =    0.03186596



           PRINCIPAL MOMENTS OF INERTIA IN UNITS OF 10**(-40)*GRAM-CM**2

          A =      348.4740   B =      633.6250   C =      878.4532


 ROTATION MATRIX FOR ORIENTATION OF MOLECULE:

         0.913366    0.404429    0.046909
        -0.387280    0.898571   -0.206360
        -0.125609    0.170315    0.977351


          CARTESIAN COORDINATES 

    NO.       ATOM         X         Y         Z

     1         C        0.8560   -1.1118    0.7821
     2         S       -0.6996   -1.2976   -0.1378
     3         C       -1.4433    0.1444    0.0299
     4         N       -2.5787    0.7996   -0.3417
     5         H        1.0472   -2.0856    1.2774
     6         H        0.7503   -0.3642    1.5947
     7         C        1.9980   -0.7408   -0.1524
     8         C        1.8999    0.6725   -0.7450
     9         H        2.0750   -1.4764   -0.9800
    10         H        2.9546   -0.8317    0.4079
    11         H        0.9867    0.7673   -1.3653
    12         H        2.7461    0.8182   -1.4484
    13         C        1.9219    1.7756    0.3081
    14         H        2.7708    1.6733    0.9922
    15         H        1.0053    1.7826    0.9129
    16         H        1.9964    2.7652   -0.1595
    17         C       -1.7285    1.5353    0.4400


 ENERGY OF "REORIENTED" SYSTEM WITHOUT FIELD:      113.7378587743


  NFREQ=  3  IWFLB=  0  IBET=  1  IGAM=  1
  ATOL= 0.10000D-02  BTOL= 0.10000D-02    MAXITU=  500    MAXITA=  150


 *****************************************************************
 CALCULATION OF STATIC FIELD QUANTITIES
 *****************************************************************

 +++++ ALPHA AT       0.00000 EV.

                           COMPONENTS OF ALPHA

                     *X           *Y           *Z
           *=X:     124.5647     -26.9579       2.9237
           *=Y:     -26.9635     116.7612       8.4747
           *=Z:       2.9136       8.4785      86.4246

  ISOTROPIC AVERAGE ALPHA =     109.25015 A.U. =     16.18920 ANG.**3

 +++++ BETA (SECOND HARMONIC GENERATION) AT       0.00000 EV.

                              COMPONENTS OF BETA
            *XX         *XY         *YY         *XZ         *YZ         *ZZ
   *=X -2223.94063   718.18874   -62.21600  1105.57926  -382.51732  -567.54913
   *=Y   721.71881   -63.63384  -325.43808  -384.16685    13.01611   196.03125
   *=Z  1108.79170  -383.51793    12.47305  -569.08491   195.76167   289.92371


 AVERAGE BETAX(SHG) VALUE AT   0.00000 EV =      -1713.4049 a.u. = -0.148028E-28 ESU
 AVERAGE BETAY(SHG) VALUE AT   0.00000 EV =        353.8673 a.u. =  0.305721E-29 ESU
 AVERAGE BETAZ(SHG) VALUE AT   0.00000 EV =        845.6453 a.u. =  0.730588E-29 ESU



 AVERAGE BETA (SHG) VALUE AT   0.00000 EV =       1943.2176 a.u. =  0.167883E-28 ESU
   (1 a.u. = 8.639418X10-33 esu)



 +++++ ALPHA AT       0.00000 EV.

                           COMPONENTS OF ALPHA

                     *X           *Y           *Z
           *=X:     124.5648     -26.9579       2.9237
           *=Y:     -26.9636     116.7612       8.4747
           *=Z:       2.9135       8.4785      86.4246

  ISOTROPIC AVERAGE ALPHA =     109.25018 A.U. =     16.18921 ANG.**3


 GAMMA (THIRD HARMONIC GENERATION) AT    0.00000 EV.


 GAMMA(X,X,X,X) =        938315.52479
 GAMMA(Y,Y,Y,Y) =         25110.61326
 GAMMA(Z,Z,Z,Z) =         56669.25317
 GAMMA(X,X,Y,Y) =        121232.95023
 GAMMA(X,X,Z,Z) =        222745.98316
 GAMMA(Y,Y,X,X) =        121237.07566
 GAMMA(Y,Y,Z,Z) =         30939.87478
 GAMMA(Z,Z,X,X) =        222748.38817
 GAMMA(Z,Z,Y,Y) =         30938.89336


 AVERAGE GAMMA VALUE AT    0.00000 =        353987.71132 a.u. =       178293.08188 ESU (X10-39)




 **********************************************************************
 CALCULATION FOR A FREQUENCY OF    0.25000 EV  =       0.00919 A.U. 
                  WAVELENGTH OF    4959.37 NM  =    2016.38525 CM(-1)
 **********************************************************************

 +++++ ALPHA AT       0.25000 EV.

                           COMPONENTS OF ALPHA

                     *X           *Y           *Z
           *=X:     124.7196     -27.0822       2.8795
           *=Y:     -27.0904     116.8961       8.5202
           *=Z:       2.8706       8.5212      86.4793

  ISOTROPIC AVERAGE ALPHA =     109.36500 A.U. =     16.20622 ANG.**3

 +++++ BETA (SECOND HARMONIC GENERATION) AT       0.25000 EV.

                              COMPONENTS OF BETA
            *XX         *XY         *YY         *XZ         *YZ         *ZZ
   *=X -2289.58186   741.84014   -64.19874  1141.04478  -396.64716  -586.77745
   *=Y   765.01936   -73.64820  -330.92207  -407.65194    19.70992   208.82915
[...]
 TRAVEL (Ang.)       0.3419         C  8 -- C 13         +12.0% ( 41.6%)     83.2%
 REDUCED MASS        0.4692         C  8 -- H 12         +11.0% ( 39.9%)      1.7%
 EFFECTIVE MASS      4.7651
 FORCE CONSTANT      0.4178

 VIBRATION         28   28A           ATOM PAIR      ENERGY CONTRIBUTION    RADIAL
 FREQUENCY          1254.55         C  1 -- H  6         +31.2% ( 58.4%)      1.5%
 TRANSITION DIPOLE   0.6581         C  1 -- H  5         +28.4% ( 55.6%)      2.2%
 TRAVEL (Ang.)       0.3580         C  1 -- C  7         +12.0% ( 36.2%)     99.4%
 REDUCED MASS        0.4193         C  1 -- S  2          +7.3% ( 28.2%)      8.3%
 EFFECTIVE MASS      2.6853
 FORCE CONSTANT      0.3888

 VIBRATION         29   29A           ATOM PAIR      ENERGY CONTRIBUTION    RADIAL
 FREQUENCY          1258.22         C 13 -- H 16         +46.8% ( 58.6%)      0.0%
 TRANSITION DIPOLE   0.4637         C 13 -- H 15         +22.3% ( 40.5%)      7.6%
 TRAVEL (Ang.)       0.3907         C 13 -- H 14         +21.1% ( 39.3%)      8.2%
 REDUCED MASS        0.3511         C  8 -- C 13          +3.5% ( 15.9%)      4.2%
 EFFECTIVE MASS      1.4452
 FORCE CONSTANT      0.3274

 VIBRATION         30   30A           ATOM PAIR      ENERGY CONTRIBUTION    RADIAL
 FREQUENCY          1260.55         C 13 -- H 14         +32.8% ( 51.0%)      1.0%
 TRANSITION DIPOLE   0.2838         C 13 -- H 15         +29.0% ( 47.9%)      2.0%
 TRAVEL (Ang.)       0.4486         C 13 -- H 16          +9.9% ( 28.0%)     36.6%
 REDUCED MASS        0.2658         C  1 -- H  6          +9.3% ( 27.1%)      0.4%
 EFFECTIVE MASS      1.5945
 FORCE CONSTANT      0.2488

 VIBRATION         31   31A           ATOM PAIR      ENERGY CONTRIBUTION    RADIAL
 FREQUENCY          1275.68         C  7 -- H 10         +33.2% ( 56.7%)      1.9%
 TRANSITION DIPOLE   0.4924         C  7 -- H  9         +32.3% ( 55.9%)      2.7%
 TRAVEL (Ang.)       0.3724         C  7 -- C  8          +9.5% ( 30.4%)     95.8%
 REDUCED MASS        0.3811         C  8 -- H 11          +6.9% ( 25.9%)      2.3%
 EFFECTIVE MASS      2.2278
 FORCE CONSTANT      0.3654

 VIBRATION         32   32A           ATOM PAIR      ENERGY CONTRIBUTION    RADIAL
 FREQUENCY          1289.93         C  8 -- H 11         +37.2% ( 58.8%)      2.4%
 TRANSITION DIPOLE   0.2584         C  8 -- H 12         +34.0% ( 56.3%)      2.6%
 TRAVEL (Ang.)       0.3560         C  8 -- C 13          +8.0% ( 27.4%)     81.2%
 REDUCED MASS        0.4126         C  7 -- C  8          +7.0% ( 25.5%)      4.0%
 EFFECTIVE MASS      2.1230
 FORCE CONSTANT      0.4045

 VIBRATION         33   33A           ATOM PAIR      ENERGY CONTRIBUTION    RADIAL
 FREQUENCY          1298.61         C  8 -- H 11         +17.4% ( 54.2%)      0.0%
 TRANSITION DIPOLE   0.2634         C  7 -- C  8         +16.8% ( 53.3%)     86.6%
 TRAVEL (Ang.)       0.2475         C  7 -- H 10         +14.4% ( 49.3%)      0.0%
 REDUCED MASS        0.8476         C  8 -- H 12         +13.5% ( 47.8%)      0.9%
 EFFECTIVE MASS      4.9824         C  7 -- H  9         +11.8% ( 44.7%)      0.7%
 FORCE CONSTANT      0.8421         C  8 -- C 13         +10.9% ( 42.9%)     62.5%

 VIBRATION         34   34A           ATOM PAIR      ENERGY CONTRIBUTION    RADIAL
 FREQUENCY          1330.42         C  7 -- H  9         +21.0% ( 55.1%)      0.5%
 TRANSITION DIPOLE   0.4064         C  7 -- H 10         +16.6% ( 49.0%)      0.0%
 TRAVEL (Ang.)       0.2898         C  8 -- H 12         +12.6% ( 42.7%)      1.5%
 REDUCED MASS        0.6035         C  7 -- C  8          +9.1% ( 36.4%)      9.7%
 EFFECTIVE MASS      3.8963
 FORCE CONSTANT      0.6293

 VIBRATION         35   35A           ATOM PAIR      ENERGY CONTRIBUTION    RADIAL
 FREQUENCY          1342.01         C 13 -- H 16         +23.9% ( 50.8%)      0.4%
 TRANSITION DIPOLE   0.6566         C 13 -- H 15         +20.4% ( 46.9%)      1.6%
 TRAVEL (Ang.)       0.3839         C 13 -- H 14         +19.8% ( 46.3%)      2.4%
 REDUCED MASS        0.3409         C  8 -- H 12         +10.7% ( 34.0%)      0.1%
 EFFECTIVE MASS      2.3540
 FORCE CONSTANT      0.3618

 VIBRATION         36   36A           ATOM PAIR      ENERGY CONTRIBUTION    RADIAL
 FREQUENCY          1776.62         C  3 -- N  4         +36.7% ( 77.2%)     98.3%
 TRANSITION DIPOLE   2.2586         N  4 -- C 17         +28.6% ( 68.1%)     95.6%
 TRAVEL (Ang.)       0.0925         C  3 -- C 17         +24.2% ( 62.7%)     99.6%
 REDUCED MASS        4.4364         S  2 -- C  3         +10.5% ( 41.2%)     88.1%
 EFFECTIVE MASS     12.7999
 FORCE CONSTANT      8.2504

 VIBRATION         37   37A           ATOM PAIR      ENERGY CONTRIBUTION    RADIAL
 FREQUENCY          2648.95         C  1 -- H  6         +45.7% ( 70.0%)     98.3%
 TRANSITION DIPOLE   0.5241         C  1 -- H  5         +35.5% ( 61.6%)     97.4%
 TRAVEL (Ang.)       0.2651         C  7 -- H  9          +9.5% ( 32.0%)     98.4%
 REDUCED MASS        0.3622         C  7 -- H 10          +6.0% ( 25.3%)     97.6%
 EFFECTIVE MASS      1.4459
 FORCE CONSTANT      1.4975

 VIBRATION         38   38A           ATOM PAIR      ENERGY CONTRIBUTION    RADIAL
 FREQUENCY          2658.15         C  7 -- H 10         +24.8% ( 51.5%)     98.6%
 TRANSITION DIPOLE   0.4275         C  8 -- H 11         +23.2% ( 49.8%)     98.0%
 TRAVEL (Ang.)       0.3693         C  8 -- H 12         +19.3% ( 45.4%)     97.9%
 REDUCED MASS        0.1860         C  7 -- H  9         +13.8% ( 38.4%)     96.9%
 EFFECTIVE MASS      1.4315
 FORCE CONSTANT      0.7743

 VIBRATION         39   39A           ATOM PAIR      ENERGY CONTRIBUTION    RADIAL
 FREQUENCY          2666.33         C  8 -- H 12         +24.4% ( 51.0%)     98.3%
 TRANSITION DIPOLE   0.4369         C  7 -- H  9         +22.7% ( 49.2%)     97.9%
 TRAVEL (Ang.)       0.3613         C  7 -- H 10         +20.5% ( 46.7%)     97.7%
 REDUCED MASS        0.1938         C  8 -- H 11         +16.6% ( 42.0%)     97.2%
 EFFECTIVE MASS      1.4441
 FORCE CONSTANT      0.8116

 VIBRATION         40   40A           ATOM PAIR      ENERGY CONTRIBUTION    RADIAL
 FREQUENCY          2689.47         C 13 -- H 15         +45.3% ( 69.3%)     97.5%
 TRANSITION DIPOLE   0.6859         C 13 -- H 16         +44.2% ( 68.4%)     97.8%
 TRAVEL (Ang.)       0.2445         C  8 -- H 11          +6.4% ( 26.1%)     98.9%
 REDUCED MASS        0.4195         C  8 -- H 12          +1.6% ( 13.0%)     93.7%
 EFFECTIVE MASS      1.4586
 FORCE CONSTANT      1.7878

 VIBRATION         41   41A           ATOM PAIR      ENERGY CONTRIBUTION    RADIAL
 FREQUENCY          2698.97         C 13 -- H 14         +58.6% ( 78.7%)     99.3%
 TRANSITION DIPOLE   0.5798         C 13 -- H 16         +17.7% ( 43.3%)     87.6%
 TRAVEL (Ang.)       0.2446         C 13 -- H 15         +15.3% ( 40.2%)     85.8%
 REDUCED MASS        0.4174         C  8 -- H 12          +5.9% ( 25.0%)     99.3%
 EFFECTIVE MASS      1.4661
 FORCE CONSTANT      1.7916

 VIBRATION         42   42A           ATOM PAIR      ENERGY CONTRIBUTION    RADIAL
 FREQUENCY          2722.28         C  1 -- H  5         +51.7% ( 70.8%)     97.1%
 TRANSITION DIPOLE   0.7649         C  1 -- H  6         +44.6% ( 65.8%)     96.1%
 TRAVEL (Ang.)       0.2320         C  7 -- H 10          +2.3% ( 14.9%)     98.6%
 REDUCED MASS        0.4602         C  1 -- S  2          +0.5% (  6.6%)     23.6%
 EFFECTIVE MASS      1.2377
 FORCE CONSTANT      2.0093

 VIBRATION         43   43A           ATOM PAIR      ENERGY CONTRIBUTION    RADIAL
 FREQUENCY          2734.68         C  7 -- H  9         +51.3% ( 70.6%)     97.3%
 TRANSITION DIPOLE   0.5262         C  7 -- H 10         +42.0% ( 63.9%)     95.8%
 TRAVEL (Ang.)       0.2382         C  8 -- H 12          +3.0% ( 17.0%)     98.8%
 REDUCED MASS        0.4346         C  1 -- H  6          +2.0% ( 13.8%)     96.8%
 EFFECTIVE MASS      1.2508
 FORCE CONSTANT      1.9150

 VIBRATION         44   44A           ATOM PAIR      ENERGY CONTRIBUTION    RADIAL
 FREQUENCY          2741.36         C  8 -- H 11         +49.8% ( 69.6%)     97.2%
 TRANSITION DIPOLE   0.4047         C  8 -- H 12         +43.1% ( 64.7%)     96.1%
 TRAVEL (Ang.)       0.2392         C  7 -- H 10          +2.7% ( 16.1%)     97.4%
 REDUCED MASS        0.4300         C 13 -- H 16          +2.7% ( 16.0%)     98.6%
 EFFECTIVE MASS      1.2570
 FORCE CONSTANT      1.9038

 VIBRATION         45   45A           ATOM PAIR      ENERGY CONTRIBUTION    RADIAL
 FREQUENCY          2788.18         C 13 -- H 14         +35.9% ( 57.7%)     96.1%
 TRANSITION DIPOLE   0.3170         C 13 -- H 16         +34.4% ( 56.5%)     95.9%
 TRAVEL (Ang.)       0.2732         C 13 -- H 15         +28.6% ( 51.5%)     94.7%
 REDUCED MASS        0.3241         C  8 -- H 11          +0.4% (  6.3%)     83.9%
 EFFECTIVE MASS      1.1461
 FORCE CONSTANT      1.4846

      SYMMETRY NUMBER FOR POINT-GROUP C1  =  1


          SYSTEM IS A GROUND STATE


 All coordinates are Cartesian
 buscn


          MOLECULE IS NOT LINEAR

          THERE ARE 45 GENUINE VIBRATIONS IN THIS SYSTEM
          THIS THERMODYNAMICS CALCULATION IS LIMITED TO
          MOLECULES WHICH HAVE NO INTERNAL ROTATIONS




                    CALCULATED THERMODYNAMIC PROPERTIES
                                          *
   TEMP. (K)   PARTITION FUNCTION   H.O.F.    ENTHALPY  HEAT CAPACITY ENTROPY
                                   KCAL/MOL   CAL/MOLE    CAL/K/MOL  CAL/K/MOL


 298.00  VIB.     0.1508D+04                  4357.3343    27.3346    29.1649
         ROT.     0.4968D+06                   888.2803     2.9808    29.0450
         INT.     0.7490D+09                  5245.6146    30.3154    58.2099
         TRA.     0.1387D+28                  1480.4672     4.9680    40.4330
         TOT.                      113.738    6726.0818    35.2834    98.6429

 200.00  VIB.     0.1250D+03                  2093.1538    19.0804    20.0608
         ROT.     0.2732D+06                   596.1613     2.9808    27.8563
         INT.     0.3415D+08                  2689.3151    22.0612    47.9171
         TRA.     0.7626D+27                   993.6021     4.9680    38.4519
         TOT.                      110.695    3682.9173    27.0292    86.3690

 210.00  VIB.     0.1625D+03                  2287.8415    19.8597    21.0105
         ROT.     0.2939D+06                   625.9693     2.9808    28.0017
         INT.     0.4776D+08                  2913.8108    22.8405    49.0122
         TRA.     0.8205D+27                  1043.2822     4.9680    38.6943
         TOT.                      110.969    3957.0931    27.8085    87.7065

 220.00  VIB.     0.2107D+03                  2490.3994    20.6546    21.9527
         ROT.     0.3151D+06                   655.7774     2.9808    28.1404
         INT.     0.6641D+08                  3146.1768    23.6354    50.0931
         TRA.     0.8798D+27                  1092.9623     4.9680    38.9254
         TOT.                      111.251    4239.1391    28.6034    89.0185

 230.00  VIB.     0.2727D+03                  2700.9872    21.4657    22.8887
         ROT.     0.3369D+06                   685.5855     2.9808    28.2729
         INT.     0.9188D+08                  3386.5727    24.4465    51.1615
         TRA.     0.9405D+27                  1142.6424     4.9680    39.1462
         TOT.                      111.541    4529.2151    29.4145    90.3078

 240.00  VIB.     0.3523D+03                  2919.7666    22.2928    23.8196
         ROT.     0.3591D+06                   715.3935     2.9808    28.3997
         INT.     0.1265D+09                  3635.1602    25.2736    52.2194
         TRA.     0.1002D+28                  1192.3226     4.9680    39.3577
         TOT.                      111.839    4827.4827    30.2416    91.5771

 250.00  VIB.     0.4543D+03                  3146.8936    23.1350    24.7467
         ROT.     0.3818D+06                   745.2016     2.9808    28.5214
         INT.     0.1734D+09                  3892.0952    26.1158    53.2681
         TRA.     0.1066D+28                  1242.0027     4.9680    39.5605
         TOT.                      112.146    5134.0978    31.0838    92.8286

 260.00  VIB.     0.5848D+03                  3382.5126    23.9909    25.6707
         ROT.     0.4049D+06                   775.0097     2.9808    28.6383
         INT.     0.2368D+09                  4157.5222    26.9717    54.3090
         TRA.     0.1130D+28                  1291.6828     4.9680    39.7553
         TOT.                      112.461    5449.2050    31.9398    94.0644

 270.00  VIB.     0.7517D+03                  3626.7521    24.8588    26.5924
         ROT.     0.4285D+06                   804.8177     2.9808    28.7508
         INT.     0.3221D+09                  4431.5698    27.8396    55.3432
         TRA.     0.1196D+28                  1341.3629     4.9680    39.9428
         TOT.                      112.785    5772.9327    32.8076    95.2860

 280.00  VIB.     0.9649D+03                  3879.7216    25.7366    27.5123
         ROT.     0.4525D+06                   834.6258     2.9808    28.8592
         INT.     0.4366D+09                  4714.3474    28.7174    56.3715
         TRA.     0.1263D+28                  1391.0430     4.9680    40.1235
         TOT.                      113.117    6105.3904    33.6854    96.4950

 290.00  VIB.     0.1237D+04                  4141.5095    26.6221    28.4308
         ROT.     0.4770D+06                   864.4339     2.9808    28.9638
         INT.     0.5900D+09                  5005.9434    29.6029    57.3947
         TRA.     0.1332D+28                  1440.7231     4.9680    40.2978
         TOT.                      113.458    6446.6665    34.5709    97.6925

 300.00  VIB.     0.1584D+04                  4412.1820    27.5131    29.3484
         ROT.     0.5018D+06                   894.2419     2.9808    29.0649
         INT.     0.7949D+09                  5306.4239    30.4939    58.4133
         TRA.     0.1401D+28                  1490.4032     4.9680    40.4662
         TOT.                      113.809    6796.8271    35.4619    98.8795

 310.00  VIB.     0.2026D+04                  4691.7830    28.4074    30.2651
         ROT.     0.5271D+06                   924.0500     2.9808    29.1626
         INT.     0.1068D+10                  5615.8329    31.3882    59.4277
         TRA.     0.1472D+28                  1540.0833     4.9680    40.6291
         TOT.                      114.168    7155.9162    36.3563   100.0569

 320.00  VIB.     0.2589D+04                  4980.3346    29.3029    31.1811
         ROT.     0.5528D+06                   953.8580     2.9808    29.2573
         INT.     0.1431D+10                  5934.1927    32.2837    60.4384
         TRA.     0.1543D+28                  1589.7634     4.9680    40.7869
         TOT.                      114.536    7523.9561    37.2517   101.2253

 330.00  VIB.     0.3306D+04                  5277.8382    30.1975    32.0965
         ROT.     0.5790D+06                   983.6661     2.9808    29.3490
         INT.     0.1914D+10                  6261.5043    33.1783    61.4455
         TRA.     0.1616D+28                  1639.4435     4.9680    40.9398
         TOT.                      114.913    7900.9478    38.1463   102.3853

 340.00  VIB.     0.4217D+04                  5584.2754    31.0893    33.0113
         ROT.     0.6055D+06                  1013.4742     2.9808    29.4380
         INT.     0.2553D+10                  6597.7496    34.0701    62.4492
         TRA.     0.1690D+28                  1689.1236     4.9680    41.0881
         TOT.                      115.299    8286.8732    39.0381   103.5373

 350.00  VIB.     0.5375D+04                  5899.6099    31.9767    33.9253
         ROT.     0.6324D+06                  1043.2822     2.9808    29.5244
         INT.     0.3399D+10                  6942.8921    34.9575    63.4497
         TRA.     0.1765D+28                  1738.8037     4.9680    41.2321
         TOT.                      115.693    8681.6959    39.9255   104.6817

 360.00  VIB.     0.6847D+04                  6223.7889    32.8580    34.8385
         ROT.     0.6597D+06                  1073.0903     2.9808    29.6084
         INT.     0.4517D+10                  7296.8792    35.8388    64.4468
         TRA.     0.1842D+28                  1788.4838     4.9680    41.3720
         TOT.                      116.097    9085.3630    40.8068   105.8189

 370.00  VIB.     0.8716D+04                  6556.7450    33.7319    35.7507
         ROT.     0.6874D+06                  1102.8984     2.9808    29.6900
         INT.     0.5991D+10                  7659.6433    36.7127    65.4407
         TRA.     0.1919D+28                  1838.1639     4.9680    41.5081
         TOT.                      116.510    9497.8073    41.6807   106.9489

 380.00  VIB.     0.1109D+05                  6898.3980    34.5972    36.6618
         ROT.     0.7154D+06                  1132.7064     2.9808    29.7695
         INT.     0.7932D+10                  8031.1044    37.5780    66.4313
         TRA.     0.1997D+28                  1887.8440     4.9680    41.6406
         TOT.                      116.931    9918.9484    42.5460   108.0719

 390.00  VIB.     0.1410D+05                  7248.6564    35.4528    37.5715
         ROT.     0.7438D+06                  1162.5145     2.9808    29.8470
         INT.     0.1049D+11                  8411.1709    38.4336    67.4185
         TRA.     0.2077D+28                  1937.5242     4.9680    41.7697
         TOT.                      117.360   10348.6950    43.4016   109.1882

 400.00  VIB.     0.1791D+05                  7607.4192    36.2979    38.4798
         ROT.     0.7726D+06                  1192.3226     2.9808    29.9224
         INT.     0.1384D+11                  8799.7418    39.2787    68.4022
         TRA.     0.2157D+28                  1987.2043     4.9680    41.8955
         TOT.                      117.799   10786.9460    44.2467   110.2977

   *: NOTE: HEATS OF FORMATION ARE RELATIVE TO THE
            ELEMENTS IN THEIR STANDARD STATE AT 298K
              (=  Standard Enthalpy of Formation).

            Hvib:  Zero-point energy is not included.
                   frequencies of less than zero cm-1 are not included.
            Hrot = (3/2)RT
            Htra = (3/2)RT + pV = (5/2)RT

            Heat capacity is Cp, not Cv

          For more information, see: HTTP://OpenMOPAC.net/Manual/thermochemistry.html


           FORCE CONSTANT IN CARTESIAN COORDINATES (Millidynes/A)

    ATOM   CHEMICAL       X               Y               Z
   NUMBER   SYMBOL  FORCE CONSTANT  FORCE CONSTANT  FORCE CONSTANT

      1       C        4.762559        6.234692        6.753253
      2       S        3.939073        4.369856        0.519826
      3       C        5.508392        8.395843        0.881653
      4       N       12.098458        3.691129        0.158559
      5       H        0.962153        2.507282        1.858768
      6       H        1.135886        2.879543        1.342093
      7       C        6.450267        6.919115        7.451783
      8       C        6.695086        7.512330        6.801994
      9       H        1.084056        2.996204        1.428441
     10       H        3.936047        0.765766        0.773248
     11       H        3.958102        0.867215        0.705950
     12       H        0.978403        0.957227        3.570950
     13       C        6.509644        6.950609        6.436329
     14       H        3.959675        0.740493        0.695145
     15       H        1.239979        1.097270        3.023687
     16       H        0.578150        2.587369        2.208087
     17       C        4.957176        6.200589        0.159738

 **********************
 *                    *
 * JOB ENDED NORMALLY *
 *                    *
 **********************



 TOTAL JOB TIME:            13.04 SECONDS

 == MOPAC DONE ==
