 *******************************************************************************
 **                                                                           **
 **                              MOPAC v22.1.1                                **
 **                                                                           **
 *******************************************************************************
 **          Digital Object Identifier (DOI): 10.5281/zenodo.6511958          **
 **    Visit the DOI location for information on how to cite this program.    **
 *******************************************************************************

                              PM6 CALCULATION RESULTS

 *******************************************************************************
 *  CALCULATION DONE:                                Tue May  7 17:20:57 2024  *
 *  PM6        - The PM6 Hamiltonian to be used
 *  MMOK       - APPLY MM CORRECTION TO CONH BARRIER
 *  STATIC     - CALCULATE STATIC FIELD POLARIZABILITIES
 *  POLAR      - CALCULATE FIRST, SECOND AND THIRD-ORDER POLARIZABILITIES
 *  PRECISE    - TIGHTER CRITERIA TO BE USED
 *  XYZ        - CARTESIAN COORDINATE SYSTEM TO BE USED
 *  T=         - A TIME OF 172800.0 SECONDS REQUESTED
 *  DUMP=N     - RESTART FILE WRITTEN EVERY 7200.0 SECONDS REQUESTED
 *  CYCLES=    - DO A MAXIMUM OF 8000 STEPS
 *  ENPART     - ENERGY TO BE PARTITIONED INTO COMPONENTS
 *  PRTXYZ     - PRINT CARTESIAN COORDINATES
 *  DISP       - PRINT DISPERSION AND HYDROGEN BOND ENERGIES
 *  BONDS      - FINAL BOND-ORDER MATRIX TO BE PRINTED
 *  LARGE      - EXPANDED OUTPUT TO BE PRINTED
 *  SUPER      - PRINT SUPERDELOCALIZABILITIES
 *  ALLVEC     - PRINT ALL EIGENVECTORS
 *******************************************************************************
PM6 PRECISE POLAR MMOK XYZ ENPART STATIC SUPER BONDS LARGE PRTXYZ DISP ALLVEC CYCLES = 8000
 etscn
 All coordinates are Cartesian
   ATOM   CHEMICAL          X               Y               Z
  NUMBER   SYMBOL      (ANGSTROMS)     (ANGSTROMS)     (ANGSTROMS)
 
     1       C         -1.61700000  *  -0.25400000  *   0.00000000  *
     2       N         -2.73600000  *   0.07400000  *   0.00000000  *
     3       S          0.00000000  *  -0.77900000  *   0.00000000  *
     4       C          0.87000000  *   0.86600000  *   0.00000000  *
     5       C          2.37600000  *   0.62100000  *   0.00000000  *
     6       H          0.55000000  *   1.41200000  *   0.89000000  *
     7       H          0.55000000  *   1.41200000  *  -0.89000000  *
     8       H          2.89500000  *   1.58400000  *   0.00000000  *
     9       H          2.69400000  *   0.06700000  *   0.88800000  *
    10       H          2.69400000  *   0.06700000  *  -0.88800000  *
 


          CARTESIAN COORDINATES 

    NO.       ATOM           X           Y           Z

     1         C         -1.6170     -0.2540      0.0000
     2         N         -2.7360      0.0740      0.0000
     3         S          0.0000     -0.7790      0.0000
     4         C          0.8700      0.8660      0.0000
     5         C          2.3760      0.6210      0.0000
     6         H          0.5500      1.4120      0.8900
     7         H          0.5500      1.4120     -0.8900
     8         H          2.8950      1.5840      0.0000
     9         H          2.6940      0.0670      0.8880
    10         H          2.6940      0.0670     -0.8880

 General Reference for PM6:
 "Optimization of Parameters for Semiempirical Methods V: Modification of NDDO Approximations
 and Application to 70 Elements", J. J. P. Stewart, J. Mol. Mod., 13, 1173-1213 (2007)
 URL: https://link.springer.com/article/10.1007/s00894-007-0233-4

           Empirical Formula: C3 H5 N S  =    10 atoms



      MOLECULAR POINT GROUP   :   Cs  


      RHF CALCULATION, NO. OF DOUBLY OCCUPIED LEVELS = 14


          Geometry optimization using EF

          DIAGONAL MATRIX USED AS START HESSIAN

 CYCLE:     1 TIME:   0.020 TIME LEFT:  2.00D  GRAD.:    51.614 HEAT:  28.13404
 CYCLE:     2 TIME:   0.043 TIME LEFT:  2.00D  GRAD.:    76.173 HEAT:  28.10678
 CYCLE:     3 TIME:   0.012 TIME LEFT:  2.00D  GRAD.:    19.704 HEAT:  27.58179
 CYCLE:     4 TIME:   0.020 TIME LEFT:  2.00D  GRAD.:    16.409 HEAT:  27.48404
 CYCLE:     5 TIME:   0.008 TIME LEFT:  2.00D  GRAD.:     8.610 HEAT:  27.39349
 CYCLE:     6 TIME:   0.012 TIME LEFT:  2.00D  GRAD.:    11.429 HEAT:  27.35983
 CYCLE:     7 TIME:   0.008 TIME LEFT:  2.00D  GRAD.:     7.366 HEAT:  27.28865
 CYCLE:     8 TIME:   0.012 TIME LEFT:  2.00D  GRAD.:     6.558 HEAT:  27.25018
 CYCLE:     9 TIME:   0.012 TIME LEFT:  2.00D  GRAD.:     9.894 HEAT:  27.23364
 CYCLE:    10 TIME:   0.008 TIME LEFT:  2.00D  GRAD.:     9.740 HEAT:  27.23146
 CYCLE:    11 TIME:   0.012 TIME LEFT:  2.00D  GRAD.:     4.594 HEAT:  27.18822
 CYCLE:    12 TIME:   0.012 TIME LEFT:  2.00D  GRAD.:     3.375 HEAT:  27.17656
 CYCLE:    13 TIME:   0.020 TIME LEFT:  2.00D  GRAD.:     3.992 HEAT:  27.17415
 CYCLE:    14 TIME:   0.008 TIME LEFT:  2.00D  GRAD.:     1.241 HEAT:  27.16119
 CYCLE:    15 TIME:   0.012 TIME LEFT:  2.00D  GRAD.:     1.099 HEAT:  27.15445
 CYCLE:    16 TIME:   0.008 TIME LEFT:  2.00D  GRAD.:     2.292 HEAT:  27.14456
 CYCLE:    17 TIME:   0.012 TIME LEFT:  2.00D  GRAD.:     1.779 HEAT:  27.14268
 CYCLE:    18 TIME:   0.008 TIME LEFT:  2.00D  GRAD.:     0.376 HEAT:  27.14044
 CYCLE:    19 TIME:   0.012 TIME LEFT:  2.00D  GRAD.:     0.129 HEAT:  27.14037
 CYCLE:    20 TIME:   0.012 TIME LEFT:  2.00D  GRAD.:     0.398 HEAT:  27.14042
 CYCLE:    21 TIME:   0.008 TIME LEFT:  2.00D  GRAD.:     0.056 HEAT:  27.14036
 CYCLE:    22 TIME:   0.012 TIME LEFT:  2.00D  GRAD.:     0.025 HEAT:  27.14036

     GRADIENT =  0.02518 IS LESS THAN CUTOFF =  0.05000



 -------------------------------------------------------------------------------
 PM6 PRECISE POLAR MMOK XYZ ENPART STATIC SUPER BONDS LARGE PRTXYZ DISP ALLVEC CYCLES = 8000
 etscn
 All coordinates are Cartesian


     GEOMETRY OPTIMISED USING EIGENVECTOR FOLLOWING (EF).     
     SCF FIELD WAS ACHIEVED                                   


                              PM6 CALCULATION
                                                       MOPAC v22.1.1 MacOS
                                                       Tue May  7 17:20:58 2024




          FINAL HEAT OF FORMATION =         27.14036 KCAL/MOL =     113.55528 KJ/MOL

          TOTAL ENERGY            =     -18187.04361 KCAL/MOL = ELECTRONIC ENERGY + CORE-CORE REPULSION
          ENERGY OF ATOMS         =      18214.18397 KCAL/MOL
                              SUM =         27.14036 KCAL/MOL
          DISPERSION ENERGY       =          0.00000 KCAL/MOL
                              SUM =         27.14036 KCAL/MOL = FINAL HEAT OF FORMATION



          TOTAL ENERGY            =       -788.66485 EV
          ELECTRONIC ENERGY       =      -2632.37893 EV 
          CORE-CORE REPULSION     =       1843.71408 EV
          COSMO AREA              =        125.71 SQUARE ANGSTROMS
          COSMO VOLUME            =        111.80 CUBIC ANGSTROMS

          GRADIENT NORM           =          0.02518          =       0.00796 PER ATOM
          IONIZATION POTENTIAL    =          9.457643 EV
          HOMO LUMO ENERGIES (EV) =         -9.458 -0.397
          NO. OF FILLED LEVELS    =         14
          MOLECULAR WEIGHT        =         87.1392         POINT GROUP:  Cs  

          MOLECULAR DIMENSIONS (Angstroms)

            Atom       Atom       Distance
            H     8    N     2     5.86335
            H     9    H     7     2.64626
            H     6    H    10     2.63378


          SCF CALCULATIONS        =         28
 
          WALL-CLOCK TIME         =      0.301 SECONDS
          COMPUTATION TIME        =      2.160 SECONDS




   ATOM   CHEMICAL          X               Y               Z
  NUMBER   SYMBOL      (ANGSTROMS)     (ANGSTROMS)     (ANGSTROMS)
 
     1       C         -1.60789992  *  -0.25382786  *  -0.00000285  *
     2       N         -2.73197305  *   0.01096747  *   0.00000344  *
     3       S          0.01838397  *  -0.72358368  *   0.00000065  *
     4       C          0.86293919  *   0.89902717  *  -0.00000614  *
     5       C          2.34135290  *   0.57990174  *   0.00000296  *
     6       H          0.56868017  *   1.48560524  *   0.89136127  *
     7       H          0.56868138  *   1.48561467  *  -0.89136208  *
     8       H          2.93778385  *   1.50519172  *  -0.00000027  *
     9       H          2.65086210  *   0.00764076  *   0.88680088  *
    10       H          2.65086132  *   0.00764796  *  -0.88679546  *

                             CARTESIAN COORDINATES

   1    C       -1.607899919    -0.253827859    -0.000002853
   2    N       -2.731973053     0.010967470     0.000003440
   3    S        0.018383972    -0.723583679     0.000000651
   4    C        0.862939190     0.899027168    -0.000006142
   5    C        2.341352896     0.579901742     0.000002959
   6    H        0.568680170     1.485605238     0.891361274
   7    H        0.568681383     1.485614667    -0.891362079
   8    H        2.937783847     1.505191717    -0.000000272
   9    H        2.650862098     0.007640765     0.886800883
  10    H        2.650861317     0.007647963    -0.886795463


           Empirical Formula: C3 H5 N S  =    10 atoms



      MOLECULAR POINT GROUP   :   Cs  


                EIGENVECTORS  


   Root No.       1         2         3         4         5         6         7         8

                 1 a'      2 a'      3 a'      4 a'      5 a'      1 a"      6 a'      7 a'  

               -31.924   -30.194   -26.655   -21.790   -17.605   -16.256   -14.749   -14.536
  
  S   C    1    0.5656   -0.0386   -0.1248   -0.1148   -0.4012    0.0000   -0.2099   -0.1468
  Px  C    1   -0.2010    0.3247   -0.2200   -0.1074   -0.2781    0.0000   -0.1143    0.0673
  Py  C    1    0.0526   -0.0614    0.0660    0.0821    0.0993    0.0000   -0.3617    0.3439
  Pz  C    1    0.0000   -0.0000    0.0000   -0.0000    0.0000    0.1130    0.0000    0.0000
  S   N    2    0.5994   -0.3288    0.1421    0.0682    0.3124   -0.0000    0.2734    0.1916
  Px  N    2    0.3256   -0.1232    0.0165   -0.0147   -0.1874    0.0000   -0.3327   -0.1118
  Py  N    2   -0.0746    0.0336    0.0013    0.0301    0.0668   -0.0000   -0.2765    0.3699
  Pz  N    2   -0.0000    0.0000   -0.0000   -0.0000    0.0000    0.0854    0.0000    0.0000
  S   S    3    0.3396    0.6362   -0.4186   -0.1828    0.2820   -0.0000    0.2441    0.0702
  Px  S    3   -0.1056   -0.0004    0.1746    0.1326    0.4665   -0.0000   -0.0010    0.0312
  Py  S    3    0.0919    0.1733   -0.0012    0.1407    0.0319    0.0000   -0.2857    0.1081
  Pz  S    3   -0.0000   -0.0000    0.0000   -0.0000    0.0000    0.1980    0.0000    0.0000
  x2  S    3    0.0138    0.0018   -0.0207   -0.0483   -0.0861    0.0000   -0.0000   -0.0666
  xz  S    3   -0.0000    0.0000   -0.0000   -0.0000   -0.0000    0.0083   -0.0000   -0.0000
  z2  S    3   -0.0176   -0.0249    0.0083   -0.0043    0.0302   -0.0000    0.0446    0.0166
  yz  S    3   -0.0000   -0.0000    0.0000   -0.0000    0.0000    0.0298    0.0000   -0.0000
  xy  S    3   -0.0042    0.0113    0.0246    0.0302    0.0786   -0.0000    0.0085   -0.0256
  S   C    4    0.1307    0.4061    0.3174    0.5068   -0.0311   -0.0000   -0.0326   -0.0826
  Px  C    4   -0.0311   -0.0131    0.2225   -0.1697    0.0044    0.0000    0.0970   -0.4665
  Py  C    4   -0.0431   -0.0993    0.0695    0.1720   -0.3803    0.0000    0.1927    0.1704
  Pz  C    4    0.0000    0.0000    0.0000   -0.0000    0.0000    0.5905    0.0000   -0.0000
  S   C    5    0.0548    0.2555    0.5698   -0.3766   -0.0358    0.0000   -0.0102   -0.0299
  Px  C    5   -0.0291   -0.0963   -0.0415   -0.2736   -0.1158   -0.0000    0.0641    0.5374
  Py  C    5   -0.0015   -0.0011    0.0358    0.0927   -0.2438    0.0000    0.4629    0.0888
  Pz  C    5   -0.0000   -0.0000   -0.0000    0.0000    0.0000    0.4952    0.0000    0.0000
  S   H    6    0.0528    0.1566    0.1346    0.3064   -0.1466    0.3210    0.0307    0.1144
  S   H    7    0.0528    0.1566    0.1346    0.3064   -0.1466   -0.3210    0.0307    0.1145
  S   H    8    0.0180    0.0924    0.2620   -0.2108   -0.1877    0.0000    0.2957    0.2489
  S   H    9    0.0225    0.1055    0.2416   -0.2408    0.0450    0.2644   -0.1603    0.0609
  S   H   10    0.0225    0.1055    0.2416   -0.2408    0.0450   -0.2644   -0.1603    0.0609


   Root No.       9        10        11        12        13        14        15        16

                 2 a"      8 a'      3 a"      9 a'     10 a'      4 a"     11 a'     12 a'  

               -14.290   -13.847   -12.976   -12.511   -11.382    -9.458    -0.397    -0.279
  
  S   C    1    0.0000    0.0172    0.0000    0.0039    0.0710    0.0000    0.1584   -0.2856
  Px  C    1    0.0000    0.0996    0.0000   -0.3771    0.1708    0.0000    0.2065   -0.2522
  Py  C    1    0.0000    0.4108    0.0000   -0.0300   -0.1828   -0.0000    0.1674    0.2031
  Pz  C    1    0.6647   -0.0000    0.1183    0.0000    0.0000   -0.0499   -0.0000    0.0000
  S   N    2   -0.0000   -0.0175    0.0000   -0.4225    0.1465    0.0000    0.0216   -0.0332
  Px  N    2    0.0000    0.1212    0.0000    0.4834   -0.2685   -0.0000   -0.0980    0.0446
  Py  N    2    0.0000    0.4292    0.0000   -0.2762   -0.1940   -0.0000   -0.2708   -0.1993
  Pz  N    2    0.6617   -0.0000    0.1497    0.0000    0.0000   -0.2973    0.0000   -0.0000
  S   S    3   -0.0000    0.0441    0.0000    0.0756   -0.2858   -0.0000    0.0266    0.1534
  Px  S    3   -0.0000    0.0391   -0.0000    0.3422   -0.0967   -0.0000    0.5431   -0.3832
  Py  S    3    0.0000    0.0312   -0.0000    0.0873    0.6291    0.0000    0.2454    0.4961
  Pz  S    3    0.2415   -0.0000   -0.1034   -0.0000   -0.0000    0.9274   -0.0000   -0.0000
  x2  S    3    0.0000    0.0030    0.0000   -0.0928    0.0103    0.0000    0.3472   -0.2046
  xz  S    3   -0.0516    0.0000   -0.0185   -0.0000   -0.0000   -0.0118    0.0000   -0.0000
  z2  S    3   -0.0000    0.0047    0.0000    0.0204   -0.1039    0.0000    0.0253    0.3749
  yz  S    3    0.0084    0.0000   -0.0251   -0.0000   -0.0000   -0.0360    0.0000    0.0000
  xy  S    3   -0.0000   -0.0214   -0.0000    0.0771    0.0659   -0.0000   -0.4552   -0.0369
  S   C    4    0.0000   -0.0317    0.0000    0.0011    0.0582   -0.0000   -0.1504   -0.1532
  Px  C    4    0.0000    0.3535    0.0000   -0.2047   -0.1479    0.0000    0.1645    0.1908
  Py  C    4   -0.0000   -0.1581   -0.0000   -0.1612   -0.4279   -0.0000    0.2892    0.3102
  Pz  C    4   -0.0342    0.0000   -0.4667   -0.0000   -0.0000   -0.1433    0.0000    0.0000
  S   C    5   -0.0000    0.0294    0.0000   -0.0397    0.0091    0.0000   -0.0345    0.0421
  Px  C    5   -0.0000   -0.2538   -0.0000    0.2103    0.0518   -0.0000    0.0340   -0.0643
  Py  C    5   -0.0000    0.4684    0.0000    0.2261    0.1681    0.0000   -0.0052   -0.0125
  Pz  C    5   -0.1870   -0.0000    0.5613    0.0000    0.0000    0.0006   -0.0000   -0.0000
  S   H    6   -0.0159   -0.1507   -0.2976   -0.0244   -0.1224   -0.1155    0.0149   -0.0252
  S   H    7    0.0159   -0.1507    0.2976   -0.0244   -0.1224    0.1155    0.0149   -0.0252
  S   H    8   -0.0000    0.2027   -0.0000    0.2200    0.1472    0.0000   -0.0198   -0.0785
  S   H    9   -0.1063   -0.2176    0.3478   -0.0652   -0.0635    0.0133    0.0027    0.0223
  S   H   10    0.1063   -0.2176   -0.3478   -0.0652   -0.0636   -0.0133    0.0027    0.0223


   Root No.      17        18        19        20        21        22        23        24

                 5 a"     13 a'      6 a"     14 a'     15 a'      7 a"     16 a'     17 a'  

                 0.820     0.996     1.862     2.109     2.127     2.267     2.614     3.489
  
  S   C    1   -0.0000   -0.0586    0.0000    0.1324    0.1125   -0.0000   -0.2903   -0.0484
  Px  C    1    0.0000   -0.1653    0.0000    0.0593    0.1628    0.0000   -0.1841   -0.0280
  Py  C    1    0.0000   -0.4903   -0.0000   -0.2213    0.3290    0.0000    0.1886    0.0249
  Pz  C    1    0.6100   -0.0000   -0.0055   -0.0000   -0.0000    0.3959   -0.0000   -0.0000
  S   N    2   -0.0000   -0.0013    0.0000    0.0013   -0.0019    0.0000    0.0021    0.0014
  Px  N    2   -0.0000    0.1438    0.0000   -0.0156   -0.1159   -0.0000    0.0870    0.0160
  Py  N    2    0.0000    0.4791    0.0000    0.1667   -0.2640   -0.0000   -0.1269   -0.0165
  Pz  N    2   -0.5933    0.0000    0.0038    0.0000    0.0000   -0.3034    0.0000    0.0000
  S   S    3   -0.0000    0.0408   -0.0000   -0.0935   -0.0373   -0.0000    0.0168   -0.0061
  Px  S    3    0.0000    0.0739    0.0000    0.0592    0.0429   -0.0000   -0.3548   -0.1145
  Py  S    3   -0.0000    0.2830    0.0000   -0.1161   -0.1443   -0.0000   -0.1349   -0.0365
  Pz  S    3   -0.1536   -0.0000    0.0265    0.0000    0.0000   -0.0762    0.0000    0.0000
  x2  S    3    0.0000    0.5209   -0.0000   -0.1705    0.3314    0.0000    0.6304   -0.0220
  xz  S    3   -0.4748    0.0000    0.2967   -0.0000   -0.0000    0.8253   -0.0000    0.0000
  z2  S    3   -0.0000    0.1475   -0.0000    0.7599    0.4886    0.0000   -0.0526    0.0173
  yz  S    3    0.1618    0.0000    0.9486    0.0000    0.0000   -0.2535    0.0000    0.0000
  xy  S    3   -0.0000    0.2232    0.0000   -0.4235    0.6139    0.0000   -0.3634   -0.1789
  S   C    4    0.0000   -0.0541   -0.0000    0.0760    0.0394    0.0000    0.0817    0.2931
  Px  C    4    0.0000    0.1249   -0.0000   -0.1773    0.0175   -0.0000   -0.2408    0.5561
  Py  C    4   -0.0000    0.1454    0.0000   -0.2126   -0.0889   -0.0000   -0.2517   -0.2666
  Pz  C    4   -0.0068    0.0000    0.0220   -0.0000   -0.0000    0.0044   -0.0000   -0.0000
  S   C    5   -0.0000   -0.0410    0.0000    0.0282   -0.0380    0.0000    0.0491   -0.2342
  Px  C    5    0.0000    0.0783   -0.0000   -0.0711    0.0727   -0.0000   -0.1079    0.6198
  Py  C    5   -0.0000   -0.0176    0.0000    0.0122   -0.0177   -0.0000    0.0055   -0.1241
  Pz  C    5    0.0058   -0.0000   -0.0015    0.0000    0.0000   -0.0025    0.0000   -0.0000
  S   H    6    0.0186    0.0152   -0.0739   -0.0055    0.0361   -0.0062    0.0069    0.0837
  S   H    7   -0.0186    0.0152    0.0739   -0.0055    0.0361    0.0062    0.0069    0.0837
  S   H    8    0.0000   -0.0161    0.0000    0.0411    0.0193    0.0000    0.0604   -0.0605
  S   H    9    0.0010    0.0023   -0.0010   -0.0076   -0.0096   -0.0008   -0.0096   -0.0711
  S   H   10   -0.0010    0.0023    0.0010   -0.0076   -0.0096    0.0008   -0.0096   -0.0711


   Root No.      25        26        27        28        29        30

                 8 a"     18 a'      9 a"     19 a'     20 a'     21 a'  

                 4.632     5.003     5.262     5.316     5.383     6.058
  
  S   C    1   -0.0000    0.0056    0.0000   -0.0669   -0.4319    0.0056
  Px  C    1    0.0000   -0.0164   -0.0000    0.0972    0.5568    0.0049
  Py  C    1    0.0000   -0.0077   -0.0000   -0.0077   -0.1307   -0.0032
  Pz  C    1    0.0090    0.0000   -0.0051   -0.0000   -0.0000    0.0000
  S   N    2    0.0000   -0.0068   -0.0000    0.0509    0.3069    0.0006
  Px  N    2    0.0000   -0.0110   -0.0000    0.0945    0.5803   -0.0004
  Py  N    2   -0.0000    0.0072    0.0000   -0.0285   -0.1384    0.0013
  Pz  N    2   -0.0045    0.0000    0.0026   -0.0000   -0.0000   -0.0000
  S   S    3   -0.0000    0.0053   -0.0000   -0.0000   -0.0376    0.0047
  Px  S    3   -0.0000   -0.0022    0.0000    0.0041    0.0443    0.0248
  Py  S    3   -0.0000    0.0429    0.0000   -0.0289   -0.0041   -0.0074
  Pz  S    3   -0.0316   -0.0000    0.0242    0.0000    0.0000   -0.0000
  x2  S    3    0.0000   -0.0466   -0.0000    0.0153   -0.0576    0.0140
  xz  S    3   -0.0416    0.0000    0.0230    0.0000   -0.0000   -0.0000
  z2  S    3    0.0000   -0.0199   -0.0000    0.0243    0.0368    0.0014
  yz  S    3   -0.0742   -0.0000    0.0364    0.0000   -0.0000    0.0000
  xy  S    3   -0.0000    0.0119   -0.0000    0.0077    0.0411    0.0096
  S   C    4    0.0000   -0.2485   -0.0001    0.4780   -0.0885   -0.0129
  Px  C    4    0.0000    0.0780    0.0000   -0.0855    0.0164   -0.1142
  Py  C    4   -0.0000   -0.0823   -0.0001    0.3311   -0.0497    0.0411
  Pz  C    4    0.5529   -0.0000   -0.3247   -0.0001    0.0000   -0.0000
  S   C    5    0.0000    0.0129    0.0000   -0.0611    0.0098    0.6263
  Px  C    5    0.0000   -0.1598   -0.0000    0.0371   -0.0111    0.2258
  Py  C    5   -0.0000   -0.5503    0.0001   -0.2931    0.0384   -0.0554
  Pz  C    5    0.2715    0.0000    0.5753    0.0001   -0.0000   -0.0000
  S   H    6   -0.4828    0.2293    0.2366   -0.4670    0.0798   -0.0166
  S   H    7    0.4828    0.2293   -0.2364   -0.4671    0.0798   -0.0166
  S   H    8   -0.0000    0.5695   -0.0001    0.2763   -0.0340   -0.4053
  S   H    9   -0.2702   -0.2848   -0.4739   -0.1068    0.0127   -0.4318
  S   H   10    0.2702   -0.2848    0.4740   -0.1066    0.0127   -0.4318

           SUPERDELOCALIZABILITIES

 Mulliken electronegativity:        4.927105
 Parr & Pople absolute hardness:    4.530538
 Schuurmann MO shift alpha:        -4.927105
 
 Ehomo:                            -9.457643
 Elumo:                            -0.396566


  a   n        Dn(r)        De(r)   q(r) - Z(r)

  C   1    -0.592937    -0.353194    -4.029641
  N   2    -0.415516    -0.514556    -5.163004
  S   3    -1.940845    -0.753985    -5.915372
  C   4    -1.197797    -0.010502    -0.090124
  C   5    -0.707316    -0.273033    -3.116722

 Total:    -4.854410    -1.905270

  a   n        piS(r)

  C   1    -0.212213
  N   2    -0.197815
  S   3    -0.168309
  C   4    -0.202506
  C   5    -0.184428

 Total:    -0.965271

  a   n       homo-1         homo         lumo       lumo+1

  C   1     6.763406     0.248815     9.575580    18.642818
  N   2    13.120661     8.840765     8.338333     4.279989
  S   3    50.202228    86.155055    68.432263    60.021378
  C   4     1.089317     0.143182    12.122248    18.240396
  C   5    21.270596     0.000000    34.054677    15.743390


              NET ATOMIC CHARGES AND DIPOLE CONTRIBUTIONS

  ATOM NO.   TYPE          CHARGE      No. of ELECS.   s-Pop       p-Pop       d-Pop       
    1          C          -0.029641        4.0296     1.16409     2.86556
    2          N          -0.163004        5.1630     1.80313     3.35987
    3          S           0.084628        5.9154     1.92437     3.86226     0.12875
    4          C          -0.254652        4.2547     1.10561     3.14904
    5          C          -0.458985        4.4590     1.07927     3.37971
    6          H           0.163406        0.8366     0.83659
    7          H           0.163406        0.8366     0.83659
    8          H           0.164576        0.8354     0.83542
    9          H           0.165133        0.8349     0.83487
   10          H           0.165132        0.8349     0.83487
 DIPOLE           X         Y         Z       TOTAL
 POINT-CHG.     3.578     0.889     0.000     3.687
 HYBRID         0.500     0.102    -0.000     0.510
 SUM            4.078     0.991    -0.000     4.197


          ATOMIC ORBITAL ELECTRON POPULATIONS

     Atom    s        px        py        pz      x^2-y^2     xz        z^2       yz        xy
    1  C   1.16409   0.96396   0.95939   0.94221
    2  N   1.80313   1.20083   1.04713   1.11191
    3  S   1.92437   0.81162   1.11399   1.93665   0.04709   0.00642   0.03084   0.00577   0.03863
    4  C   1.10561   0.99056   0.98193   1.17656
    5  C   1.07927   1.00872   1.18055   1.19044
    6  H   0.83659
    7  H   0.83659
    8  H   0.83542
    9  H   0.83487
   10  H   0.83487

          BONDING CONTRIBUTION OF EACH M.O.

  1.4512  1.2346  1.6876  1.8853  1.5000  1.8266  1.5058  1.8785  1.8415  1.9787
  1.9201  1.2857  1.4875  0.3658 -0.9780 -1.4553 -1.5723 -1.2962 -0.0295 -0.5499
 -0.5947 -0.5374 -1.2438 -1.9302 -1.9223 -1.9442 -1.9755 -1.9499 -1.9544 -1.9157





            (VALENCIES)   BOND ORDERS

     1  C     (3.945)     2  N 2.897     3  S 1.036
 
     2  N     (3.023)     1  C 2.897     3  S 0.107     4  C 0.018
 
     3  S     (2.161)     1  C 1.036     4  C 0.983     2  N 0.107     5  C 0.014
 
     4  C     (3.938)     5  C 1.005     3  S 0.983     6  H 0.963     7  H 0.963     2  N 0.018
 
     5  C     (3.917)     4  C 1.005     9  H 0.965    10  H 0.965     8  H 0.960     3  S 0.014
 
     6  H     (0.973)     4  C 0.963
 
     7  H     (0.973)     4  C 0.963
 
     8  H     (0.973)     5  C 0.960
 
     9  H     (0.973)     5  C 0.965
 
    10  H     (0.973)     5  C 0.965
 




 SELF-Q:    SELF OR INACTIVE CHARGE
 ACTIV-Q:   CHARGE WHICH IS USED TO FORM BONDS
 TOTAL-Q:   SELF-Q + ACTIV-Q
 FREE-VA:   TOTAL-Q - VALENCE
 STAT.PROM: TOTAL-Q - CORE CHARGE
 MULL.PROM: -CHARGE (SEE ABOVE)

       SELF-Q    ACTIV-Q   TOTAL-Q   VALENCE   FREE-VA STAT.PROM MULL.PROM


   1   0.08461   3.94503   4.02964   3.94503   0.00000   0.02964   0.02964

   2   2.13953   3.02347   5.16300   3.02347   0.00000   0.16300   0.16300

   3   3.75478   2.16059   5.91537   2.16059  -0.00000  -0.08463  -0.08463

   4   0.31655   3.93810   4.25465   3.93810  -0.00000   0.25465   0.25465

   5   0.54188   3.91710   4.45898   3.91710   0.00000   0.45898   0.45898

   6  -0.13670   0.97330   0.83659   0.97330  -0.00000  -0.16341  -0.16341

   7  -0.13670   0.97330   0.83659   0.97330  -0.00000  -0.16341  -0.16341

   8  -0.13749   0.97291   0.83542   0.97291   0.00000  -0.16458  -0.16458

   9  -0.13786   0.97273   0.83487   0.97273  -0.00000  -0.16513  -0.16513

  10  -0.13786   0.97273   0.83487   0.97273   0.00000  -0.16513  -0.16513

 CLOSED SHELL





          TOTAL ENERGY PARTITIONING

          ALL ENERGIES ARE IN ELECTRON VOLTS

            ONE-CENTER TERMS 
          E-E:  ELECTRON-ELECTRON REPULSION
          E-N:  ELECTRON-NUCLEAR ATTRACTION


   ATOM      E-E       E-N    (E-E + E-N)
   C   1    74.1812 -173.9170  -99.7359
   N   2   109.3738 -271.8279 -162.4541
   S   3    84.0825 -248.7943 -164.7118
   C   4    82.0722 -182.2514 -100.1792
   C   5    89.7174 -190.1183 -100.4010
   H   6     2.5281   -9.4091   -6.8810
   H   7     2.5281   -9.4091   -6.8810
   H   8     2.5211   -9.3960   -6.8749
   H   9     2.5177   -9.3897   -6.8720
   H  10     2.5177   -9.3897   -6.8720

              TWO-CENTER TERMS
           
          J:   RESONANCE ENERGY          E-E: ELECTRON-ELECTRON REPULSION
          K:   EXCHANGE ENERGY           E-N: ELECTRON-NUCLEAR ATTRACTION
                                         N-N: NUCLEAR-NUCLEAR REPULSION
          C:   COULOMBIC INTERACTION = E-E + E-N + N-N
          EE:  TOTAL OF ELECTRONIC AND NUCLEAR ENERGIES


     ATOM          J        K       E-E       E-N      N-N      C        EE
     PAIR
 
  N    2  C    1  -31.9760 -14.8124 173.6661 -352.9961 193.3615 14.0315 -32.7569
 
  S    3  C    1  -11.9975  -4.7902 155.2789 -316.4306 165.8736  4.7219 -12.0658
  S    3  N    2    0.1959  -0.2350 135.7451 -272.5514 136.8418  0.0354  -0.0037
 
  C    4  C    1    0.0553  -0.0109  84.3573 -162.8785  78.6472  0.1259   0.1704
  C    4  N    2    0.0031  -0.0356  80.7732 -155.1015  74.4282  0.1000   0.0674
  C    4  S    3   -9.0044  -4.2892 155.6709 -309.1506 156.4264  2.9467 -10.3469
 
  C    5  C    1   -0.0058  -0.0135  62.0365 -117.1065  55.1416  0.0716   0.0522
  C    5  N    2    0.0000  -0.0014  62.7395 -117.6886  55.0962  0.1471   0.1457
  C    5  S    3   -0.0447  -0.0396 126.3579 -242.8007 116.3310 -0.1118  -0.1962
  C    5  C    4  -11.9718  -5.2175 142.9005 -266.7119 128.8643  5.0529 -12.1364
 
  H    6  C    1    0.0055  -0.0005  15.6981  -34.2878  18.5577 -0.0320  -0.0269
  H    6  N    2   -0.0007  -0.0004  15.8849  -34.5232  18.5699 -0.0684  -0.0695
  H    6  S    3    0.0386  -0.0125  25.5733  -56.7439  31.4371  0.2664   0.2925
  H    6  C    4  -11.2547  -5.3476  33.2695  -71.5200  42.7915  4.5410 -12.0612
  H    6  C    5    0.0136  -0.0005  22.1115  -46.3787  23.9686 -0.2985  -0.2854

   ATOM          J        K       E-E       E-N      N-N      C        EE
   PAIR
  H    7  C    1    0.0055  -0.0005  15.6981  -34.2877  18.5577 -0.0320  -0.0269
  H    7  N    2   -0.0007  -0.0004  15.8848  -34.5232  18.5699 -0.0684  -0.0695
  H    7  S    3    0.0386  -0.0125  25.5732  -56.7438  31.4370  0.2664   0.2925
  H    7  C    4  -11.2547  -5.3476  33.2696  -71.5202  42.7917  4.5411 -12.0612
  H    7  C    5    0.0136  -0.0005  22.1115  -46.3786  23.9686 -0.2985  -0.2854
  H    7  H    6   -0.0423  -0.0009   4.9345  -11.7967   7.1330  0.2708   0.2276

   ATOM          J        K       E-E       E-N      N-N      C        EE
   PAIR
  H    8  C    1    0.0002  -0.0016   9.7618  -21.3406  11.5579 -0.0209  -0.0222
  H    8  N    2    0.0000  -0.0004  10.3424  -22.4683  12.0759 -0.0500  -0.0504
  H    8  S    3   -0.0147  -0.0178  18.2135  -40.3532  22.2078  0.0681   0.0356
  H    8  C    4   -0.0275  -0.0030  21.2802  -45.5389  24.1545 -0.1043  -0.1347
  H    8  C    5  -11.1801  -5.3278  34.7804  -73.4318  42.9792  4.3278 -12.1802
  H    8  H    6    0.0042  -0.0001   3.6994   -8.8502   5.2989  0.1481   0.1522
  H    8  H    7    0.0042  -0.0001   3.6994   -8.8502   5.2989  0.1481   0.1522

   ATOM          J        K       E-E       E-N      N-N      C        EE
   PAIR
  H    9  C    1   -0.0004  -0.0003  10.8591  -23.7410  12.8570 -0.0248  -0.0254
  H    9  N    2    0.0000  -0.0000  11.0672  -24.0643  12.9459 -0.0512  -0.0513
  H    9  S    3   -0.0056  -0.0023  22.5433  -49.9290  27.4930  0.1073   0.0994
  H    9  C    4    0.0134  -0.0006  21.0511  -45.0871  23.9244 -0.1116  -0.0988
  H    9  C    5  -11.2416  -5.3638  34.7911  -73.4665  43.0105  4.3351 -12.2703
  H    9  H    6    0.0064  -0.0002   3.6692   -8.7809   5.2586  0.1470   0.1531
  H    9  H    7   -0.0169  -0.0093   3.0782   -7.3666   4.4075  0.1191   0.0929
  H    9  H    8   -0.0856  -0.0035   4.9572  -11.8715   7.1947  0.2804   0.1913

   ATOM          J        K       E-E       E-N      N-N      C        EE
   PAIR
  H   10  C    1   -0.0004  -0.0003  10.8592  -23.7410  12.8571 -0.0248  -0.0254
  H   10  N    2    0.0000  -0.0000  11.0672  -24.0644  12.9459 -0.0512  -0.0513
  H   10  S    3   -0.0056  -0.0023  22.5433  -49.9290  27.4930  0.1073   0.0994
  H   10  C    4    0.0134  -0.0006  21.0512  -45.0873  23.9245 -0.1116  -0.0988
  H   10  C    5  -11.2417  -5.3638  34.7912  -73.4667  43.0106  4.3351 -12.2703
  H   10  H    6   -0.0169  -0.0093   3.0782   -7.3666   4.4075  0.1191   0.0929
  H   10  H    7    0.0064  -0.0002   3.6692   -8.7809   5.2586  0.1470   0.1531
  H   10  H    8   -0.0856  -0.0035   4.9573  -11.8716   7.1948  0.2804   0.1913
  H   10  H    9   -0.0682  -0.0023   4.9334  -11.8184   7.1628  0.2778   0.2073
 

                    Total contribution from hydrogen bonds:         0.000 disp.:    0.000 Tot:     0.000 kcal/mol




***  SUMMARY OF ENERGY PARTITION  ***
 ---------------------------------------
     ONE-CENTER TERMS

 ELECTRON-NUCLEAR  (ONE-ELECTRON)        -1113.9027 EV
 ELECTRON-ELECTRON (TWO-ELECTRON)          452.0397 EV

 TOTAL OF ONE-CENTER TERMS                -661.8630 EV
 ---------------------------------------
     TWO-CENTER TERMS

 RESONANCE ENERGY                         -121.1261 EV
 EXCHANGE ENERGY                           -56.2823 EV

 EXCHANGE + RESONANCE ENERGY:             -177.4085 EV

 ELECTRON-ELECTRON REPULSION              1740.2787 EV
 ELECTRON-NUCLEAR ATTRACTION             -3533.3862 EV
 NUCLEAR-NUCLEAR REPULSION                1843.7141 EV

 TOTAL ELECTROSTATIC INTERACTION            50.6066 EV

 GRAND TOTAL OF TWO-CENTER TERMS          -126.8019 EV
 ---------------------------------------
 ETOT (EONE + ETWO)                       -788.6649 EV


 ******************** TDHF POLARIZABILITIES ********************



          MOLECULAR WEIGHT =   87.14



          ROTATIONAL CONSTANTS IN CM(-1)

          A =    0.48431695   B =    0.06954186   C =    0.06224131



           PRINCIPAL MOMENTS OF INERTIA IN UNITS OF 10**(-40)*GRAM-CM**2

          A =       57.7984   B =      402.5309   C =      449.7456


 ROTATION MATRIX FOR ORIENTATION OF MOLECULE:

         0.984821   -0.173576   -0.000000
         0.173576    0.984821    0.000002
        -0.000000   -0.000002    1.000000


          CARTESIAN COORDINATES 

    NO.       ATOM         X         Y         Z

     1         C       -1.5177    0.0541   -0.0000
     2         N       -2.5787    0.5100    0.0000
     3         S        0.0024   -0.6908   -0.0000
     4         C        1.1158    0.7605   -0.0000
     5         C        2.5163    0.1896    0.0000
     6         H        0.9278    1.3893    0.8914
     7         H        0.9278    1.3893   -0.8914
     8         H        3.2643    0.9974    0.0000
     9         H        2.7218   -0.4277    0.8868
    10         H        2.7218   -0.4276   -0.8868


 ENERGY OF "REORIENTED" SYSTEM WITHOUT FIELD:       27.1403640000


  NFREQ=  3  IWFLB=  0  IBET=  1  IGAM=  1
  ATOL= 0.10000D-02  BTOL= 0.10000D-02    MAXITU=  500    MAXITA=  150


 *****************************************************************
 CALCULATION OF STATIC FIELD QUANTITIES
 *****************************************************************

 +++++ ALPHA AT       0.00000 EV.

                           COMPONENTS OF ALPHA

                     *X           *Y           *Z
           *=X:      90.7521      -6.3892      -0.0050
           *=Y:      -6.3790      62.2067       0.0138
           *=Z:      -0.0001      -0.0001      46.2521

  ISOTROPIC AVERAGE ALPHA =      66.40361 A.U. =      9.84000 ANG.**3

 +++++ BETA (SECOND HARMONIC GENERATION) AT       0.00000 EV.

                              COMPONENTS OF BETA
            *XX         *XY         *YY         *XZ         *YZ         *ZZ
   *=X   -30.13106    56.48778   -72.07528     0.37527    -0.20842   -32.41204
   *=Y    56.61556   -72.09538     6.27534    -0.20679     0.15778     4.11569
   *=Z    -0.00135     0.00117    -0.00042   -32.41856     4.12908     0.00110


 AVERAGE BETAX(SHG) VALUE AT   0.00000 EV =        -80.7817 a.u. = -0.697907E-30 ESU
 AVERAGE BETAY(SHG) VALUE AT   0.00000 EV =         40.1582 a.u. =  0.346943E-30 ESU
 AVERAGE BETAZ(SHG) VALUE AT   0.00000 EV =          0.2135 a.u. =  0.184473E-32 ESU



 AVERAGE BETA (SHG) VALUE AT   0.00000 EV =         90.2131 a.u. =  0.779389E-30 ESU
   (1 a.u. = 8.639418X10-33 esu)



 +++++ ALPHA AT       0.00000 EV.

                           COMPONENTS OF ALPHA

                     *X           *Y           *Z
           *=X:      90.7527      -6.3892      -0.0050
           *=Y:      -6.3812      62.2067       0.0138
           *=Z:      -0.0001      -0.0001      46.2521

  ISOTROPIC AVERAGE ALPHA =      66.40382 A.U. =      9.84003 ANG.**3


 GAMMA (THIRD HARMONIC GENERATION) AT    0.00000 EV.


 GAMMA(X,X,X,X) =         32457.47647
 GAMMA(Y,Y,Y,Y) =          1793.56503
 GAMMA(Z,Z,Z,Z) =            62.13203
 GAMMA(X,X,Y,Y) =          7895.89787
 GAMMA(X,X,Z,Z) =           640.08893
 GAMMA(Y,Y,X,X) =          7893.86299
 GAMMA(Y,Y,Z,Z) =           211.82189
 GAMMA(Z,Z,X,X) =           640.45124
 GAMMA(Z,Z,Y,Y) =           211.99427


 AVERAGE GAMMA VALUE AT    0.00000 =         10361.45814 a.u. =         5218.75830 ESU (X10-39)




 **********************************************************************
 CALCULATION FOR A FREQUENCY OF    0.25000 EV  =       0.00919 A.U. 
                  WAVELENGTH OF    4959.37 NM  =    2016.38525 CM(-1)
 **********************************************************************

 +++++ ALPHA AT       0.25000 EV.

                           COMPONENTS OF ALPHA

                     *X           *Y           *Z
           *=X:      90.8117      -6.3930      -0.0052
           *=Y:      -6.3837      62.2427       0.0141
           *=Z:      -0.0001      -0.0001      46.2626

  ISOTROPIC AVERAGE ALPHA =      66.43902 A.U. =      9.84525 ANG.**3

 +++++ BETA (SECOND HARMONIC GENERATION) AT       0.25000 EV.

                              COMPONENTS OF BETA
            *XX         *XY         *YY         *XZ         *YZ         *ZZ
   *=X   -29.45459    56.90186   -72.64677     0.38631    -0.21543   -32.64574
   *=Y    58.37168   -73.23566     7.21224    -0.21616     0.16603     4.18054
   *=Z    -0.00143     0.00120    -0.00044   -32.68557     4.17723     0.00108


 AVERAGE BETAX(SHG) VALUE AT   0.25000 EV =        -81.0998 a.u. = -0.700655E-30 ESU
 AVERAGE BETAY(SHG) VALUE AT   0.25000 EV =         41.2694 a.u. =  0.356544E-30 ESU
 AVERAGE BETAZ(SHG) VALUE AT   0.25000 EV =          0.2212 a.u. =  0.191112E-32 ESU



 AVERAGE BETA (SHG) VALUE AT   0.25000 EV =         90.9966 a.u. =  0.786158E-30 ESU
   (1 a.u. = 8.639418X10-33 esu)



 +++++ ALPHA AT       0.75000 EV.

                           COMPONENTS OF ALPHA

                     *X           *Y           *Z
           *=X:      91.2927      -6.4239      -0.0047
           *=Y:      -6.4168      62.5386       0.0133
           *=Z:      -0.0001      -0.0001      46.3484

  ISOTROPIC AVERAGE ALPHA =      66.72658 A.U. =      9.88786 ANG.**3


 GAMMA (THIRD HARMONIC GENERATION) AT    0.25000 EV.


 GAMMA(X,X,X,X) =         33176.80477
 GAMMA(Y,Y,Y,Y) =          1929.61297
 GAMMA(Z,Z,Z,Z) =            64.29414
 GAMMA(X,X,Y,Y) =          8108.52715
 GAMMA(X,X,Z,Z) =           653.80569
 GAMMA(Y,Y,X,X) =          8268.96525
 GAMMA(Y,Y,Z,Z) =           214.63605
 GAMMA(Z,Z,X,X) =           643.40930
 GAMMA(Z,Z,Y,Y) =           213.13534


 AVERAGE GAMMA VALUE AT    0.25000 =         10654.63813 a.u. =         5366.42434 ESU (X10-39)




 **********************************************************************
 CALCULATION FOR A FREQUENCY OF    0.50000 EV  =       0.01837 A.U. 
                  WAVELENGTH OF    2479.68 NM  =    4032.77050 CM(-1)
 **********************************************************************

 +++++ ALPHA AT       0.50000 EV.

                           COMPONENTS OF ALPHA

                     *X           *Y           *Z
           *=X:      90.9914      -6.4052      -0.0043
           *=Y:      -6.3977      62.3541       0.0119
           *=Z:      -0.0001      -0.0001      46.2946

  ISOTROPIC AVERAGE ALPHA =      66.54670 A.U. =      9.86120 ANG.**3

 +++++ BETA (SECOND HARMONIC GENERATION) AT       0.50000 EV.

                              COMPONENTS OF BETA
            *XX         *XY         *YY         *XZ         *YZ         *ZZ
   *=X   -27.26759    58.21291   -74.48003     0.32790    -0.18452   -33.36514
   *=Y    63.89517   -76.86584    10.26997    -0.19030     0.14821     4.37827
   *=Z    -0.00147     0.00124    -0.00048   -33.52217     4.32556     0.00076


 AVERAGE BETAX(SHG) VALUE AT   0.50000 EV =        -82.0848 a.u. = -0.709165E-30 ESU
 AVERAGE BETAY(SHG) VALUE AT   0.50000 EV =         44.8321 a.u. =  0.387323E-30 ESU
 AVERAGE BETAZ(SHG) VALUE AT   0.50000 EV =          0.1905 a.u. =  0.164588E-32 ESU



 AVERAGE BETA (SHG) VALUE AT   0.50000 EV =         93.5300 a.u. =  0.808045E-30 ESU
   (1 a.u. = 8.639418X10-33 esu)



 +++++ ALPHA AT       1.50000 EV.

                           COMPONENTS OF ALPHA

                     *X           *Y           *Z
           *=X:      92.9846      -6.5294      -0.0038
           *=Y:      -6.5192      63.6098       0.0123
           *=Z:      -0.0001      -0.0001      46.6577

  ISOTROPIC AVERAGE ALPHA =      67.75069 A.U. =     10.03962 ANG.**3


 GAMMA (THIRD HARMONIC GENERATION) AT    0.50000 EV.


 GAMMA(X,X,X,X) =         35464.05125
 GAMMA(Y,Y,Y,Y) =          2403.93784
 GAMMA(Z,Z,Z,Z) =            71.43090
 GAMMA(X,X,Y,Y) =          8793.57240
 GAMMA(X,X,Z,Z) =           697.57677
 GAMMA(Y,Y,X,X) =          9542.32367
 GAMMA(Y,Y,Z,Z) =           223.35924
 GAMMA(Z,Z,X,X) =           646.72527
 GAMMA(Z,Z,Y,Y) =           214.92516


 AVERAGE GAMMA VALUE AT    0.50000 =         11611.58050 a.u. =         5848.40775 ESU (X10-39)


 ******************** FINITE-FIELD POLARIZABILITIES ********************

    THE F-F METHOD IS PERFORMED USING BOTH AN ENERGY
    AND DIPOLE MOMENT EXPANSION.  THESE RESULTS ARE
    LISTED BELOW AS "H.o.F." AND "Dipole", RESPECTIVELY.

          MOLECULAR WEIGHT =   87.14



          ROTATIONAL CONSTANTS IN CM(-1)

          A =    0.48431695   B =    0.06954186   C =    0.06224131



           PRINCIPAL MOMENTS OF INERTIA IN UNITS OF 10**(-40)*GRAM-CM**2

          A =       57.7984   B =      402.5309   C =      449.7456


 ROTATION MATRIX FOR ORIENTATION OF MOLECULE:

         0.984821   -0.173576   -0.000000
         0.173576    0.984821    0.000002
        -0.000000   -0.000002    1.000000


          CARTESIAN COORDINATES 

    NO.       ATOM         X         Y         Z

     1         C       -1.5177    0.0541   -0.0000
     2         N       -2.5787    0.5100    0.0000
     3         S        0.0024   -0.6908   -0.0000
     4         C        1.1158    0.7605   -0.0000
     5         C        2.5163    0.1896    0.0000
     6         H        0.9278    1.3893    0.8914
     7         H        0.9278    1.3893   -0.8914
     8         H        3.2643    0.9974    0.0000
     9         H        2.7218   -0.4277    0.8868
    10         H        2.7218   -0.4276   -0.8868


 ENERGY OF "REORIENTED" SYSTEM WITHOUT FIELD:       27.14036 Kcal/mol


 APPLIED ELECTRIC FIELD MAGNITUDE:         0.10284 VOLTS PER ANGSTROM
    Step  1 of 36 done (+X)
    Step  2 of 36 done (-X)
    Step  3 of 36 done (+2X)
    Step  4 of 36 done (-2X)
    Step  5 of 36 done (+Y)
    Step  6 of 36 done (-Y)
    Step  7 of 36 done (+2Y)
    Step  8 of 36 done (-2Y)
    Step  9 of 36 done (+Y+X)
    Step 10 of 36 done (+Y-X)
    Step 11 of 36 done (-Y-X)
    Step 12 of 36 done (-Y+X)
    Step 13 of 36 done (+2Y+2X)
    Step 14 of 36 done (+2Y-2X)
    Step 15 of 36 done (-2Y-2X)
    Step 16 of 36 done (-2Y+2X)
    Step 17 of 36 done (+Z)
    Step 18 of 36 done (-Z)
    Step 19 of 36 done (+2Z)
    Step 20 of 36 done (-2Z)
    Step 21 of 36 done (+Z+X)
    Step 22 of 36 done (+Z-X)
    Step 23 of 36 done (-Z-X)
    Step 24 of 36 done (-Z+X)
    Step 25 of 36 done (+2Z+2X)
    Step 26 of 36 done (+2Z-2X)
    Step 27 of 36 done (-2Z-2X)
    Step 28 of 36 done (-2Z+2X)
    Step 29 of 36 done (+Z+Y)
    Step 30 of 36 done (+Z-Y)
    Step 31 of 36 done (-Z-Y)
    Step 32 of 36 done (-Z+Y)
    Step 33 of 36 done (+2Z+2Y)
    Step 34 of 36 done (+2Z-2Y)
    Step 35 of 36 done (-2Z-2Y)
    Step 36 of 36 done (-2Z+2Y)


 ****************************** DIPOLE ******************************


                     H.o.F.         Dipole

     X             -1.535260      -1.535226
     Y             -0.335610      -0.335607
     X              0.000001       0.000000


 MAGNITUDE:         1.571514       1.571481  (A.U.)
                    3.994390       3.994306  (DEBYE)


 ****************************** POLARIZABILITY ********************



 Polarizability Tensor from Heat of Formation:


                     1          2          3
 ------------------------------------------
          1  88.048636
          2  -3.044002  61.221639
          3  -0.000372  -0.000111  46.340617




    ROOT NO.    1           2           3

            46.34062    60.88058    88.38970
  
         1   0.00001     0.11135    -0.99378
         2   0.00001     0.99378     0.11135
         3   1.00000    -0.00001     0.00001

 Polarizability Tensor from Dipole Moment:


                     1          2          3
 ------------------------------------------
          1  88.027345
          2  -3.061592  61.202628
          3  -0.000428  -0.004520  46.340034




    ROOT NO.    1           2           3

            46.34003    60.85764    88.37234
  
         1   0.00003     0.11198    -0.99371
         2   0.00031     0.99371     0.11198
         3   1.00000    -0.00031    -0.00000


 Average Polarizability from:     H.o.F         Dipole
                               65.203631      65.190002  A.U.
                                9.661874       9.659855  ANG.**3
                            1.932323D-23   1.931919D-23  ESU
 *******************************************************************************
 **                                                                           **
 **                              MOPAC v22.1.1                                **
 **                                                                           **
 *******************************************************************************
 **          Digital Object Identifier (DOI): 10.5281/zenodo.6511958          **
 **    Visit the DOI location for information on how to cite this program.    **
 *******************************************************************************

                              PM6 CALCULATION RESULTS

 *******************************************************************************
 *  CALCULATION DONE:                                Tue May  7 17:20:58 2024  *
 *  PM6        - The PM6 Hamiltonian to be used
 *  OLDGEO     - PREVIOUS GEOMETRY TO BE USED
 *  FORCE      - FORCE CALCULATION SPECIFIED
 *  T=         - A TIME OF 172800.0 SECONDS REQUESTED
 *  DUMP=N     - RESTART FILE WRITTEN EVERY 7200.0 SECONDS REQUESTED
 *  THERMO     - THERMODYNAMIC QUANTITIES TO BE CALCULATED
 *******************************************************************************
PM6 OLDGEO FORCE THERMO
 etscn
 All coordinates are Cartesian
   ATOM   CHEMICAL          X               Y               Z
  NUMBER   SYMBOL      (ANGSTROMS)     (ANGSTROMS)     (ANGSTROMS)
 
     1       C         -2.52784119  *  -0.32033675  *  -0.00000435  *
     2       N         -3.58888938  *   0.13555106  *   0.00000265  *
     3       S         -1.00778173  *  -1.06524552  *  -0.00000205  *
     4       C          0.10559962  *   0.38614052  *  -0.00000555  *
     5       C          1.50617928  *  -0.18475765  *   0.00000268  *
     6       H         -0.08237712  *   1.01488903  *   0.89136314  *
     7       H         -0.08237388  *   1.01490183  *  -0.89136022  *
     8       H          2.25416470  *   0.62296088  *   0.00000131  *
     9       H          1.71165940  *  -0.80205717  *   0.88679936  *
    10       H          1.71166029  *  -0.80204624  *  -0.88679698  *
 


          CARTESIAN COORDINATES 

    NO.       ATOM           X           Y           Z

     1         C         -2.5278     -0.3203     -0.0000
     2         N         -3.5889      0.1356      0.0000
     3         S         -1.0078     -1.0652     -0.0000
     4         C          0.1056      0.3861     -0.0000
     5         C          1.5062     -0.1848      0.0000
     6         H         -0.0824      1.0149      0.8914
     7         H         -0.0824      1.0149     -0.8914
     8         H          2.2542      0.6230      0.0000
     9         H          1.7117     -0.8021      0.8868
    10         H          1.7117     -0.8020     -0.8868

 General Reference for PM6:
 "Optimization of Parameters for Semiempirical Methods V: Modification of NDDO Approximations
 and Application to 70 Elements", J. J. P. Stewart, J. Mol. Mod., 13, 1173-1213 (2007)
 URL: https://link.springer.com/article/10.1007/s00894-007-0233-4

           Empirical Formula: C3 H5 N S  =    10 atoms



      MOLECULAR POINT GROUP   :   Cs  


      RHF CALCULATION, NO. OF DOUBLY OCCUPIED LEVELS = 14



          HEAT OF FORMATION =      27.140364 KCALS/MOLE


          CARTESIAN COORDINATE DERIVATIVES

   NUMBER  ATOM         X            Y            Z

     1       C      0.015900     0.004270    -0.000584
     2       N     -0.012745    -0.002183     0.000359
     3       S     -0.001780    -0.002581     0.000824
     4       C     -0.001253    -0.001475    -0.003934
     5       C     -0.001049    -0.001842     0.000402
     6       H      0.001213     0.000917     0.000901
     7       H      0.001168     0.000762     0.000975
     8       H     -0.000333     0.000551    -0.000594
     9       H     -0.001488     0.001567     0.003335
    10       H      0.000367     0.000014    -0.001685
 


          GRADIENT NORM =   0.02233

          MOLECULAR WEIGHT =   87.14



          ROTATIONAL CONSTANTS IN CM(-1)

          A =    0.48431695   B =    0.06954186   C =    0.06224131



           PRINCIPAL MOMENTS OF INERTIA IN UNITS OF 10**(-40)*GRAM-CM**2

          A =       57.7984   B =      402.5309   C =      449.7456


          ORIENTATION OF MOLECULE IN FORCE CALCULATION

    NO.       ATOM         X         Y         Z

     1          C       1.4158    0.5495   -0.0001
     2          N       2.5706    0.5495   -0.0001
     3          S      -0.2749    0.6338   -0.0001
     4          C      -0.7249   -1.1392    0.0002
     5          C      -2.2371   -1.1676    0.0002
     6          H      -0.3040   -1.6426    0.8916
     7          H      -0.3040   -1.6429   -0.8911
     8          H      -2.6055   -2.2050    0.0003
     9          H      -2.6696   -0.6814    0.8869
    10          H      -2.6696   -0.6817   -0.8867


    FIRST DERIVATIVES WILL BE USED IN THE CALCULATION OF SECOND DERIVATIVES

          ESTIMATED TIME TO COMPLETE CALCULATION =        0.70 SECONDS

    FOR POINT-GROUP Cs   THERE ARE   2 UNIQUE SYMMETRY FUNCTIONS.

 STEP:   1 TIME =     0.02 SECS, INTEGRAL =      0.02 TIME LEFT: 172799.98
 STEP:   2 TIME =     0.02 SECS, INTEGRAL =      0.04 TIME LEFT: 172799.96
 STEP:   3 TIME =     0.02 SECS, INTEGRAL =      0.07 TIME LEFT: 172799.93
 STEP:   4 TIME =     0.02 SECS, INTEGRAL =      0.09 TIME LEFT: 172799.91
 STEP:   5 TIME =     0.02 SECS, INTEGRAL =      0.11 TIME LEFT: 172799.89
 STEP:   6 TIME =     0.02 SECS, INTEGRAL =      0.13 TIME LEFT: 172799.87
 STEP:   7 TIME =     0.02 SECS, INTEGRAL =      0.15 TIME LEFT: 172799.85
 STEP:   8 TIME =     0.02 SECS, INTEGRAL =      0.17 TIME LEFT: 172799.83
 STEP:   9 TIME =     0.02 SECS, INTEGRAL =      0.19 TIME LEFT: 172799.81
 STEP:  10 TIME =     0.02 SECS, INTEGRAL =      0.21 TIME LEFT: 172799.79
 STEP:  11 TIME =     0.02 SECS, INTEGRAL =      0.23 TIME LEFT: 172799.77
 STEP:  12 TIME =     0.02 SECS, INTEGRAL =      0.25 TIME LEFT: 172799.75
 STEP:  13 TIME =     0.02 SECS, INTEGRAL =      0.28 TIME LEFT: 172799.72
 STEP:  14 TIME =     0.02 SECS, INTEGRAL =      0.30 TIME LEFT: 172799.70
 STEP:  15 TIME =     0.02 SECS, INTEGRAL =      0.32 TIME LEFT: 172799.68
 STEP:  16 TIME =     0.02 SECS, INTEGRAL =      0.34 TIME LEFT: 172799.66
 STEP:  17 TIME =     0.02 SECS, INTEGRAL =      0.36 TIME LEFT: 172799.64
 STEP:  18 TIME =     0.02 SECS, INTEGRAL =      0.38 TIME LEFT: 172799.62
 STEP:  19                       INTEGRAL =      0.38 TIME LEFT: 172799.62
 STEP:  20                       INTEGRAL =      0.38 TIME LEFT: 172799.62
 STEP:  21                       INTEGRAL =      0.38 TIME LEFT: 172799.62
 STEP:  22 TIME =     0.02 SECS, INTEGRAL =      0.40 TIME LEFT: 172799.60
 STEP:  23 TIME =     0.02 SECS, INTEGRAL =      0.42 TIME LEFT: 172799.58
 STEP:  24 TIME =     0.02 SECS, INTEGRAL =      0.44 TIME LEFT: 172799.56
 STEP:  25 TIME =     0.02 SECS, INTEGRAL =      0.46 TIME LEFT: 172799.54
 STEP:  26 TIME =     0.02 SECS, INTEGRAL =      0.48 TIME LEFT: 172799.52
 STEP:  27 TIME =     0.02 SECS, INTEGRAL =      0.50 TIME LEFT: 172799.50
 STEP:  28                       INTEGRAL =      0.50 TIME LEFT: 172799.50
 STEP:  29                       INTEGRAL =      0.50 TIME LEFT: 172799.50
 STEP:  30                       INTEGRAL =      0.50 TIME LEFT: 172799.50

(To convert to Hartree/Bohr^2, multiply by (10^(-21) x N x a0^2)/(4.184 x 627.51) =  0.0642)


           FORCE MATRIX IN MILLIDYNES/ANGSTROM


                  C  1       N  2       S  3       C  4       C  5       H  6
 ------------------------------------------------------------------------------
     C    1  22.139121
     N    2  18.839453  19.904341
     S    3   3.221503   1.129987   6.021812
     C    4   0.461337   0.060941   2.082317  10.471657
     C    5   0.090053   0.025092   0.531779   3.718201  11.455284
     H    6   0.019574   0.009188   0.583226   3.393159   0.603052   4.161503
     H    7   0.019525   0.009184   0.582678   3.392989   0.602819   0.425000
     H    8   0.017702   0.004949   0.039375   0.635340   3.450484   0.018248
     H    9   0.010290   0.005481   0.058638   0.613482   3.472976   0.017903
     H   10   0.010350   0.005524   0.058382   0.613193   3.473114   0.051362


                  H  7       H  8       H  9       H 10
 ------------------------------------------------------
     H    7   4.161503
     H    8   0.018289   4.206514
     H    9   0.051438   0.439345   4.217394
     H   10   0.017985   0.439265   0.435187   4.217394


          HEAT OF FORMATION =      27.140364 KCALS/MOLE

          ZERO POINT ENERGY      43.214 KCAL/MOL


           NORMAL COORDINATE ANALYSIS (Total motion = 1 Angstrom)


   Root No.       1         2         3         4         5         6         7         8

                 1 A"      1 A'      2 A"      2 A'      3 A"      3 A'      4 A'      5 A'  

                  37.6     132.6     165.1     298.4     405.2     477.9     703.9     714.3
  
   x  C    1    0.0000    0.0270    0.0000   -0.0395    0.0000    0.0539    0.0274   -0.1699
   y  C    1    0.0000   -0.0027    0.0000    0.0288    0.0001    0.3089    0.0174    0.0610
   z  C    1    0.0163    0.0000    0.0034   -0.0000    0.5446   -0.0000   -0.0000   -0.0000
   x  N    2    0.0000    0.0274   -0.0000   -0.0405   -0.0000    0.0573    0.0302   -0.1931
   y  N    2    0.0000    0.1299   -0.0000   -0.0312   -0.0000   -0.1119   -0.0083   -0.0152
   z  N    2    0.0560   -0.0000   -0.0010    0.0000   -0.2760    0.0000    0.0000    0.0000
   x  S    3   -0.0000    0.0262    0.0000   -0.0331   -0.0000    0.0059   -0.0374    0.1536
   y  S    3   -0.0000   -0.0706    0.0000   -0.0261   -0.0000   -0.0271   -0.0783   -0.0409
   z  S    3   -0.0351    0.0000    0.0123    0.0000   -0.0791    0.0000    0.0000    0.0000
   x  C    4   -0.0000   -0.0477   -0.0000    0.0742   -0.0000   -0.0465    0.0194   -0.0035
   y  C    4   -0.0000   -0.0466   -0.0000   -0.0409   -0.0000   -0.0636    0.1703    0.0729
   z  C    4   -0.0709    0.0000   -0.0326    0.0000   -0.0146    0.0000   -0.0000   -0.0000
   x  C    5    0.0000   -0.0532    0.0000    0.0735    0.0000   -0.0629    0.0118   -0.0062
   y  C    5    0.0000    0.0723    0.0000    0.0925    0.0000   -0.0270    0.0312    0.0016
   z  C    5    0.0765   -0.0000    0.0026   -0.0000    0.0016    0.0000   -0.0000   -0.0000
   x  H    6    0.0864   -0.0832    0.0210    0.0609    0.0029   -0.0684   -0.0044   -0.0381
   y  H    6   -0.0440   -0.0740   -0.0232   -0.0489    0.0184   -0.0663    0.0923    0.0254
   z  H    6   -0.1365    0.0001   -0.0554   -0.0012   -0.0061    0.0036   -0.0121   -0.0017
   x  H    7   -0.0864   -0.0832   -0.0210    0.0609   -0.0029   -0.0684   -0.0044   -0.0381
   y  H    7    0.0440   -0.0740    0.0232   -0.0489   -0.0184   -0.0663    0.0923    0.0254
   z  H    7   -0.1365   -0.0000   -0.0554    0.0012   -0.0061   -0.0036    0.0120    0.0017
   x  H    8    0.0000   -0.1360    0.0000   -0.0359    0.0000   -0.0834    0.2439    0.1311
   y  H    8    0.0000    0.1022    0.0000    0.1331    0.0000   -0.0198   -0.0575   -0.0524
   z  H    8    0.0608   -0.0000    0.2912   -0.0000    0.0058    0.0000    0.0000    0.0000
   x  H    9    0.0882   -0.0151    0.0081    0.1198    0.0165   -0.0523   -0.0815   -0.0590
   y  H    9   -0.0445    0.1067    0.2351    0.1349    0.0002   -0.0160   -0.0645   -0.0499
   z  H    9    0.1441    0.0002   -0.1216    0.0019    0.0106   -0.0015    0.0017   -0.0021
   x  H   10   -0.0882   -0.0151   -0.0081    0.1198   -0.0165   -0.0523   -0.0815   -0.0590
   y  H   10    0.0445    0.1067   -0.2352    0.1349   -0.0002   -0.0160   -0.0645   -0.0499
   z  H   10    0.1441   -0.0002   -0.1216   -0.0019    0.0106    0.0015   -0.0017    0.0021


   Root No.       9        10        11        12        13        14        15        16

                 4 A"      5 A"      6 A'      6 A"      7 A'      8 A'      7 A"      9 A'  

                 805.6     992.7    1029.4    1133.8    1169.6    1223.5    1248.7    1248.7
  
   x  C    1   -0.0000    0.0000    0.0009    0.0000    0.0009   -0.0001    0.0000    0.0003
   y  C    1   -0.0000    0.0000   -0.0037   -0.0000    0.0052    0.0024    0.0000   -0.0006
   z  C    1   -0.0002    0.0011    0.0000   -0.0003   -0.0000   -0.0000    0.0001    0.0000
   x  N    2   -0.0000   -0.0000    0.0016    0.0000    0.0019    0.0001    0.0000    0.0002
   y  N    2   -0.0000   -0.0000    0.0011   -0.0000   -0.0008   -0.0006   -0.0000    0.0001
   z  N    2   -0.0001   -0.0001   -0.0000   -0.0000    0.0000    0.0000   -0.0000   -0.0000
   x  S    3   -0.0000    0.0000   -0.0015   -0.0000   -0.0011    0.0018    0.0000   -0.0008
   y  S    3   -0.0000    0.0000    0.0118   -0.0000   -0.0019   -0.0092   -0.0000    0.0006
   z  S    3   -0.0083    0.0062   -0.0000   -0.0020    0.0000    0.0000   -0.0003   -0.0000
   x  C    4    0.0000   -0.0000   -0.0037   -0.0000   -0.1221   -0.0400   -0.0000    0.0033
   y  C    4    0.0000   -0.0000   -0.0463   -0.0000    0.0129   -0.0500   -0.0000   -0.0044
   z  C    4    0.0545   -0.0326    0.0000   -0.0409   -0.0000    0.0000   -0.0067    0.0000
   x  C    5    0.0000    0.0000    0.0107    0.0000    0.1263    0.0118   -0.0000    0.0043
   y  C    5    0.0000    0.0000    0.0566    0.0000   -0.0139    0.0228   -0.0000   -0.0371
   z  C    5    0.0092    0.0297   -0.0000    0.0566    0.0000   -0.0000   -0.0303    0.0000
   x  H    6    0.1393    0.1504   -0.0661   -0.2211   -0.1953    0.1529   -0.0157   -0.0336
   y  H    6   -0.1848    0.2063   -0.0902   -0.0824   -0.0040    0.3181    0.0008    0.0057
   z  H    6   -0.1388    0.0180    0.0015    0.0295    0.0421    0.1114    0.0000    0.0237
   x  H    7   -0.1393   -0.1504   -0.0661    0.2211   -0.1953    0.1529    0.0157   -0.0336
   y  H    7    0.1847   -0.2063   -0.0902    0.0824   -0.0040    0.3181   -0.0008    0.0057
   z  H    7   -0.1388    0.0181   -0.0015    0.0295   -0.0421   -0.1115    0.0000   -0.0237
   x  H    8   -0.0000   -0.0000    0.3161   -0.0000    0.0328    0.0605    0.0000    0.1608
   y  H    8   -0.0000   -0.0000   -0.0798   -0.0000    0.0081   -0.0065    0.0001   -0.0735
   z  H    8   -0.0712   -0.0824    0.0000   -0.0821   -0.0000    0.0000    0.3872    0.0000
   x  H    9   -0.1417   -0.1555   -0.1270   -0.1636    0.1521   -0.0449   -0.1565   -0.0827
   y  H    9    0.0003    0.0006   -0.1041    0.0138    0.0105   -0.0174   -0.2202    0.2715
   z  H    9   -0.0708   -0.0635    0.0069   -0.0490    0.0184   -0.0047    0.0309   -0.2009
   x  H   10    0.1417    0.1555   -0.1270    0.1636    0.1521   -0.0449    0.1565   -0.0827
   y  H   10   -0.0003   -0.0006   -0.1041   -0.0139    0.0105   -0.0174    0.2202    0.2716
   z  H   10   -0.0708   -0.0635   -0.0069   -0.0490   -0.0184    0.0047    0.0308    0.2008


   Root No.      17        18        19        20        21        22        23        24

                10 A'     11 A'     12 A'      8 A"     13 A'      9 A"     14 A'     15 A'  

                1277.8    1335.1    2293.3    2654.3    2681.4    2690.0    2727.2    2782.7
  
   x  C    1   -0.0002    0.0001    0.5366   -0.0000   -0.0001    0.0000    0.0004   -0.0000
   y  C    1    0.0025    0.0000   -0.0007    0.0000    0.0000   -0.0000    0.0001    0.0001
   z  C    1   -0.0000   -0.0000   -0.0000    0.0000    0.0000   -0.0000   -0.0000   -0.0000
   x  N    2    0.0004    0.0001   -0.4293   -0.0000    0.0000    0.0000   -0.0003    0.0001
   y  N    2   -0.0004    0.0000    0.0004    0.0000    0.0000   -0.0000    0.0000   -0.0000
   z  N    2    0.0000    0.0000    0.0000   -0.0000    0.0000   -0.0000    0.0000   -0.0000
   x  S    3    0.0018   -0.0001   -0.0125   -0.0000    0.0002   -0.0000    0.0001   -0.0000
   y  S    3   -0.0006    0.0002    0.0012   -0.0000    0.0003   -0.0000    0.0014    0.0000
   z  S    3    0.0000   -0.0000    0.0000   -0.0005   -0.0000   -0.0002   -0.0000    0.0000
   x  C    4   -0.0724   -0.0084   -0.0031   -0.0000   -0.0032   -0.0000   -0.0228   -0.0058
   y  C    4    0.0098   -0.0046   -0.0031   -0.0000    0.0012   -0.0000    0.0270    0.0011
   z  C    4   -0.0000    0.0000    0.0000   -0.0408   -0.0000   -0.0165   -0.0000   -0.0000
   x  C    5    0.0215   -0.0616    0.0007    0.0000    0.0017   -0.0000   -0.0025   -0.0241
   y  C    5    0.0056   -0.0015    0.0001    0.0000   -0.0434   -0.0000    0.0078   -0.0009
   z  C    5   -0.0000    0.0000    0.0000    0.0135    0.0000   -0.0414   -0.0000    0.0000
   x  H    6    0.2855    0.0259   -0.0013    0.1405    0.0189    0.0519    0.1594    0.0098
   y  H    6   -0.1167    0.0119    0.0002   -0.1647   -0.0239   -0.0586   -0.1876   -0.0099
   z  H    6   -0.2283   -0.0120   -0.0052    0.2654    0.0433    0.0946    0.3430    0.0191
   x  H    7    0.2855    0.0259   -0.0013   -0.1405    0.0189   -0.0519    0.1594    0.0098
   y  H    7   -0.1166    0.0119    0.0002    0.1647   -0.0239    0.0587   -0.1877   -0.0100
   z  H    7    0.2284    0.0120    0.0052    0.2653   -0.0433    0.0946   -0.3430   -0.0191
   x  H    8    0.0351    0.2621    0.0013    0.0000    0.1549   -0.0000   -0.0334    0.1002
   y  H    8   -0.0046   -0.1096    0.0021    0.0000    0.3898   -0.0000   -0.0845    0.2892
   z  H    8    0.0000    0.0000   -0.0000    0.0079   -0.0001   -0.0203    0.0000   -0.0000
   x  H    9   -0.0303    0.2598   -0.0008    0.0523   -0.0901   -0.1448    0.0061    0.1188
   y  H    9    0.0255    0.0752   -0.0013   -0.0584    0.0753    0.1549   -0.0007   -0.1369
   z  H    9   -0.0280    0.1079    0.0004   -0.0989    0.1784    0.2632   -0.0073   -0.2492
   x  H   10   -0.0303    0.2598   -0.0008   -0.0524   -0.0901    0.1448    0.0061    0.1188
   y  H   10    0.0255    0.0751   -0.0013    0.0583    0.0752   -0.1548   -0.0007   -0.1368
   z  H   10    0.0279   -0.1079   -0.0004   -0.0989   -0.1785    0.2633    0.0073    0.2493


           MASS-WEIGHTED COORDINATE ANALYSIS (NORMAL COORDINATES)


   Root No.       1         2         3         4         5         6         7         8

                 1 A"      1 A'      2 A"      2 A'      3 A"      3 A'      4 A'      5 A'  

                  37.6     132.6     165.1     298.4     405.2     477.9     703.9     714.3
  
   x  C    1    0.0000    0.1146    0.0000   -0.1990    0.0000    0.1482    0.1105   -0.4355
   y  C    1    0.0000   -0.0114    0.0000    0.1453    0.0001    0.8491    0.0702    0.1564
   z  C    1    0.0972    0.0000    0.0236   -0.0000    0.8585   -0.0001   -0.0000   -0.0000
   x  N    2    0.0000    0.1255   -0.0000   -0.2206   -0.0000    0.1702    0.1318   -0.5345
   y  N    2    0.0001    0.5959   -0.0000   -0.1698   -0.0001   -0.3323   -0.0362   -0.0421
   z  N    2    0.3600   -0.0001   -0.0071    0.0000   -0.4698    0.0000    0.0000    0.0000
   x  S    3   -0.0000    0.1820    0.0000   -0.2722   -0.0000    0.0266   -0.2468    0.6433
   y  S    3   -0.0001   -0.4902    0.0000   -0.2147   -0.0000   -0.1216   -0.5166   -0.1715
   z  S    3   -0.3412    0.0001    0.1390    0.0000   -0.2036    0.0000    0.0001    0.0000
   x  C    4   -0.0000   -0.2027   -0.0000    0.3741   -0.0000   -0.1278    0.0784   -0.0088
   y  C    4   -0.0001   -0.1981   -0.0000   -0.2061   -0.0000   -0.1748    0.6876    0.1869
   z  C    4   -0.4218    0.0000   -0.2246    0.0000   -0.0230    0.0000   -0.0001   -0.0000
   x  C    5    0.0000   -0.2261    0.0000    0.3702    0.0000   -0.1728    0.0475   -0.0159
   y  C    5    0.0001    0.3073    0.0000    0.4659    0.0000   -0.0742    0.1260    0.0041
   z  C    5    0.4554   -0.0000    0.0180   -0.0001    0.0026    0.0000   -0.0000   -0.0000
   x  H    6    0.1490   -0.1023    0.0420    0.0889    0.0013   -0.0545   -0.0052   -0.0283
   y  H    6   -0.0759   -0.0911   -0.0464   -0.0714    0.0084   -0.0528    0.1079    0.0188
   z  H    6   -0.2354    0.0001   -0.1105   -0.0017   -0.0028    0.0028   -0.0141   -0.0013
   x  H    7   -0.1490   -0.1023   -0.0420    0.0889   -0.0013   -0.0545   -0.0052   -0.0283
   y  H    7    0.0758   -0.0911    0.0463   -0.0714   -0.0084   -0.0528    0.1079    0.0188
   z  H    7   -0.2354   -0.0000   -0.1105    0.0018   -0.0028   -0.0028    0.0141    0.0013
   x  H    8    0.0000   -0.1673    0.0000   -0.0524    0.0000   -0.0664    0.2853    0.0973
   y  H    8    0.0000    0.1257    0.0001    0.1942    0.0000   -0.0158   -0.0673   -0.0389
   z  H    8    0.1048   -0.0000    0.5813   -0.0000    0.0027    0.0000    0.0000    0.0000
   x  H    9    0.1521   -0.0186    0.0161    0.1749    0.0075   -0.0416   -0.0953   -0.0438
   y  H    9   -0.0767    0.1313    0.4694    0.1968    0.0001   -0.0128   -0.0754   -0.0371
   z  H    9    0.2485    0.0002   -0.2428    0.0027    0.0048   -0.0012    0.0020   -0.0016
   x  H   10   -0.1521   -0.0186   -0.0161    0.1749   -0.0075   -0.0416   -0.0953   -0.0438
   y  H   10    0.0767    0.1313   -0.4695    0.1968   -0.0001   -0.0128   -0.0754   -0.0371
   z  H   10    0.2485   -0.0003   -0.2427   -0.0028    0.0048    0.0012   -0.0020    0.0016


   Root No.       9        10        11        12        13        14        15        16

                 4 A"      5 A"      6 A'      6 A"      7 A'      8 A'      7 A"      9 A'  

                 805.6     992.7    1029.4    1133.8    1169.6    1223.5    1248.7    1248.7
  
   x  C    1   -0.0000    0.0000    0.0063    0.0000    0.0046   -0.0006    0.0000    0.0018
   y  C    1   -0.0000    0.0000   -0.0251   -0.0000    0.0253    0.0144    0.0000   -0.0041
   z  C    1   -0.0013    0.0084    0.0000   -0.0018   -0.0000   -0.0000    0.0009    0.0000
   x  N    2   -0.0000   -0.0000    0.0121    0.0000    0.0101    0.0006    0.0000    0.0016
   y  N    2   -0.0000   -0.0000    0.0080   -0.0000   -0.0041   -0.0037   -0.0000    0.0008
   z  N    2   -0.0009   -0.0011   -0.0000   -0.0001    0.0000    0.0000   -0.0003   -0.0000
   x  S    3   -0.0000    0.0000   -0.0164   -0.0000   -0.0086    0.0178    0.0000   -0.0079
   y  S    3   -0.0000    0.0000    0.1314   -0.0000   -0.0149   -0.0886   -0.0000    0.0065
   z  S    3   -0.0961    0.0743   -0.0000   -0.0228    0.0000    0.0000   -0.0030   -0.0000
   x  C    4    0.0000   -0.0000   -0.0254   -0.0000   -0.5956   -0.2360   -0.0000    0.0207
   y  C    4    0.0001   -0.0000   -0.3163   -0.0000    0.0627   -0.2953   -0.0000   -0.0280
   z  C    4    0.3844   -0.2408    0.0000   -0.2902   -0.0000    0.0000   -0.0416    0.0000
   x  C    5    0.0000    0.0000    0.0731    0.0000    0.6161    0.0699   -0.0000    0.0271
   y  C    5    0.0000    0.0000    0.3866    0.0001   -0.0679    0.1348   -0.0000   -0.2365
   z  C    5    0.0650    0.2195   -0.0001    0.4013    0.0000   -0.0000   -0.1877    0.0000
   x  H    6    0.2846    0.3216   -0.1308   -0.4544   -0.2760    0.2614   -0.0283   -0.0620
   y  H    6   -0.3776    0.4412   -0.1785   -0.1693   -0.0056    0.5440    0.0014    0.0105
   z  H    6   -0.2835    0.0386    0.0030    0.0607    0.0594    0.1905    0.0001    0.0438
   x  H    7   -0.2846   -0.3216   -0.1308    0.4544   -0.2760    0.2614    0.0283   -0.0620
   y  H    7    0.3775   -0.4412   -0.1785    0.1693   -0.0056    0.5440   -0.0014    0.0105
   z  H    7   -0.2836    0.0387   -0.0029    0.0607   -0.0594   -0.1907    0.0001   -0.0438
   x  H    8   -0.0000   -0.0000    0.6257   -0.0000    0.0463    0.1035    0.0000    0.2968
   y  H    8   -0.0000   -0.0000   -0.1580   -0.0000    0.0114   -0.0111    0.0001   -0.1356
   z  H    8   -0.1455   -0.1763    0.0000   -0.1688   -0.0000    0.0000    0.6957    0.0000
   x  H    9   -0.2896   -0.3325   -0.2515   -0.3363    0.2150   -0.0768   -0.2812   -0.1527
   y  H    9    0.0006    0.0012   -0.2060    0.0284    0.0148   -0.0298   -0.3957    0.5012
   z  H    9   -0.1447   -0.1357    0.0137   -0.1007    0.0260   -0.0080    0.0555   -0.3707
   x  H   10    0.2896    0.3325   -0.2515    0.3363    0.2150   -0.0768    0.2812   -0.1526
   y  H   10   -0.0006   -0.0012   -0.2060   -0.0285    0.0148   -0.0298    0.3957    0.5013
   z  H   10   -0.1447   -0.1357   -0.0136   -0.1007   -0.0260    0.0080    0.0554    0.3706


   Root No.      17        18        19        20        21        22        23        24

                10 A'     11 A'     12 A'      8 A"     13 A'      9 A"     14 A'     15 A'  

                1277.8    1335.1    2293.3    2654.3    2681.4    2690.0    2727.2    2782.7
  
   x  C    1   -0.0010    0.0008    0.7564   -0.0000   -0.0004    0.0000    0.0023   -0.0001
   y  C    1    0.0141    0.0002   -0.0009    0.0000    0.0000   -0.0000    0.0005    0.0008
   z  C    1   -0.0000   -0.0000   -0.0000    0.0002    0.0000   -0.0002   -0.0000   -0.0000
   x  N    2    0.0023    0.0005   -0.6534   -0.0000    0.0003    0.0000   -0.0019    0.0004
   y  N    2   -0.0024    0.0001    0.0006    0.0000    0.0000   -0.0000    0.0001   -0.0001
   z  N    2    0.0000    0.0000    0.0000   -0.0001    0.0000   -0.0000    0.0000   -0.0000
   x  S    3    0.0169   -0.0006   -0.0288   -0.0000    0.0017   -0.0000    0.0008   -0.0005
   y  S    3   -0.0058    0.0023    0.0028   -0.0000    0.0036   -0.0000    0.0129    0.0002
   z  S    3    0.0000   -0.0000    0.0000   -0.0049   -0.0000   -0.0020   -0.0000    0.0000
   x  C    4   -0.4108   -0.0529   -0.0044   -0.0000   -0.0203   -0.0000   -0.1273   -0.0370
   y  C    4    0.0554   -0.0290   -0.0044   -0.0000    0.0076   -0.0000    0.1512    0.0068
   z  C    4   -0.0000    0.0000    0.0000   -0.2624   -0.0000   -0.1068   -0.0000   -0.0000
   x  C    5    0.1221   -0.3894    0.0010    0.0000    0.0109   -0.0000   -0.0139   -0.1540
   y  C    5    0.0315   -0.0092    0.0001    0.0000   -0.2759   -0.0000    0.0435   -0.0055
   z  C    5   -0.0000    0.0000    0.0000    0.0866    0.0000   -0.2685   -0.0000    0.0000
   x  H    6    0.4692    0.0474   -0.0005    0.2615    0.0348    0.0976    0.2584    0.0182
   y  H    6   -0.1918    0.0218    0.0001   -0.3066   -0.0440   -0.1103   -0.3040   -0.0184
   z  H    6   -0.3753   -0.0220   -0.0021    0.4941    0.0797    0.1779    0.5559    0.0353
   x  H    7    0.4692    0.0474   -0.0005   -0.2615    0.0348   -0.0976    0.2584    0.0182
   y  H    7   -0.1917    0.0218    0.0001    0.3067   -0.0440    0.1103   -0.3041   -0.0184
   z  H    7    0.3754    0.0219    0.0021    0.4940   -0.0797    0.1779   -0.5559   -0.0353
   x  H    8    0.0576    0.4797    0.0005    0.0000    0.2849   -0.0000   -0.0542    0.1854
   y  H    8   -0.0076   -0.2006    0.0009    0.0000    0.7172   -0.0000   -0.1369    0.5351
   z  H    8    0.0000    0.0000   -0.0000    0.0146   -0.0001   -0.0383    0.0000   -0.0001
   x  H    9   -0.0499    0.4754   -0.0003    0.0975   -0.1657   -0.2724    0.0098    0.2198
   y  H    9    0.0419    0.1376   -0.0005   -0.1087    0.1385    0.2913   -0.0011   -0.2533
   z  H    9   -0.0459    0.1974    0.0002   -0.1841    0.3283    0.4951   -0.0119   -0.4612
   x  H   10   -0.0499    0.4754   -0.0003   -0.0975   -0.1657    0.2724    0.0098    0.2198
   y  H   10    0.0420    0.1375   -0.0005    0.1086    0.1384   -0.2911   -0.0011   -0.2531
   z  H   10    0.0459   -0.1974   -0.0002   -0.1841   -0.3283    0.4952    0.0119    0.4612


          DESCRIPTION OF VIBRATIONS


 VIBRATION          1    1A"          ATOM PAIR      ENERGY CONTRIBUTION    RADIAL
 FREQUENCY            37.62         C  4 -- C  5         +25.5% (999.0%)      0.0%
 TRANSITION DIPOLE   0.1158         S  3 -- C  5         +12.5% (999.0%)      0.0%
 TRAVEL (Ang.)       0.0000         C  5 -- H  8         +11.4% (999.0%)      0.0%
 REDUCED MASS        1.5983         C  5 -- H  9         +11.1% (999.0%)     94.5%
 EFFECTIVE MASS   1601.9305         C  5 -- H 10         +11.1% (999.0%)     94.5%
 FORCE CONSTANT      0.0013

 VIBRATION          2    1A'          ATOM PAIR      ENERGY CONTRIBUTION    RADIAL
 FREQUENCY           132.59         S  3 -- C  5         +18.1% (325.7%)      7.1%
 TRANSITION DIPOLE   0.3687         C  4 -- C  5         +16.3% (309.1%)      0.1%
 TRAVEL (Ang.)       0.3303         C  5 -- H  8         +12.4% (269.7%)     62.9%
 REDUCED MASS        4.6613         C  5 -- H  9         +11.0% (254.3%)     34.2%
 EFFECTIVE MASS     96.7863         C  5 -- H 10         +11.0% (254.3%)     34.2%
 FORCE CONSTANT      0.0483

 VIBRATION          3    2A"          ATOM PAIR      ENERGY CONTRIBUTION    RADIAL
 FREQUENCY           165.06         C  5 -- H  8         +30.0% (323.3%)      0.0%
 TRANSITION DIPOLE   0.0014         C  5 -- H 10         +26.8% (305.3%)      0.0%
 TRAVEL (Ang.)       0.0000         C  5 -- H  9         +26.8% (305.3%)      0.0%
 REDUCED MASS        0.3157         S  3 -- C  4          +4.6% (126.8%)      0.0%
 EFFECTIVE MASS     11.8841
 FORCE CONSTANT      0.0051

 VIBRATION          4    2A'          ATOM PAIR      ENERGY CONTRIBUTION    RADIAL
 FREQUENCY           298.39         C  4 -- C  5         +16.8% (209.2%)      0.0%
 TRANSITION DIPOLE   0.1943         S  3 -- C  5         +16.2% (205.0%)     99.5%
 TRAVEL (Ang.)       0.3001         C  5 -- H  9         +13.8% (189.6%)      1.4%
 REDUCED MASS        2.5087         C  5 -- H 10         +13.8% (189.6%)      1.4%
 EFFECTIVE MASS     37.0372
 FORCE CONSTANT      0.1316

 VIBRATION          5    3A"          ATOM PAIR      ENERGY CONTRIBUTION    RADIAL
 FREQUENCY           405.18         C  1 -- N  2         +59.3% ( 95.8%)      0.0%
 TRANSITION DIPOLE   0.4922         C  1 -- S  3         +39.4% ( 78.0%)      0.0%
 TRAVEL (Ang.)       0.1514         S  3 -- C  4          +0.4% (  8.0%)      0.0%
 REDUCED MASS        7.2607         S  3 -- C  5          +0.3% (  7.1%)      0.0%
 EFFECTIVE MASS     13.1412
 FORCE CONSTANT      0.7023

 VIBRATION          6    3A'          ATOM PAIR      ENERGY CONTRIBUTION    RADIAL
 FREQUENCY           477.86         C  1 -- S  3         +31.7% ( 96.9%)      0.6%
 TRANSITION DIPOLE   0.2850         C  1 -- N  2         +27.8% ( 90.6%)      0.0%
 TRAVEL (Ang.)       0.1425         C  4 -- C  5          +6.6% ( 44.3%)     15.3%
 REDUCED MASS        6.9503         S  3 -- C  5          +5.5% ( 40.5%)     31.4%
 EFFECTIVE MASS     13.3370
 FORCE CONSTANT      0.9351

 VIBRATION          7    4A'          ATOM PAIR      ENERGY CONTRIBUTION    RADIAL
 FREQUENCY           703.86         S  3 -- C  4         +28.9% (102.2%)    100.0%
 TRANSITION DIPOLE   0.1938         C  4 -- C  5         +17.5% ( 79.6%)      0.5%
 TRAVEL (Ang.)       0.1241         C  4 -- H  6         +15.3% ( 74.4%)     14.2%
 REDUCED MASS        6.2216         C  4 -- H  7         +15.3% ( 74.4%)     14.2%
 EFFECTIVE MASS     17.2527
 FORCE CONSTANT      1.8160

 VIBRATION          8    5A'          ATOM PAIR      ENERGY CONTRIBUTION    RADIAL
 FREQUENCY           714.29         C  1 -- S  3         +64.4% (130.7%)     94.1%
 TRANSITION DIPOLE   0.3978         C  1 -- N  2         +10.5% ( 52.7%)     19.9%
 TRAVEL (Ang.)       0.1085         S  3 -- C  4         +10.4% ( 52.6%)      6.3%
 REDUCED MASS        8.0218         S  3 -- C  5          +8.2% ( 46.5%)     28.9%
 EFFECTIVE MASS     20.4359
 FORCE CONSTANT      2.4114

 VIBRATION          9    4A"          ATOM PAIR      ENERGY CONTRIBUTION    RADIAL
 FREQUENCY           805.61         C  4 -- H  6         +31.7% ( 85.0%)      9.9%
 TRANSITION DIPOLE   0.4668         C  4 -- H  7         +31.7% ( 85.0%)      9.9%
 TRAVEL (Ang.)       0.4202         C  5 -- H  9          +9.0% ( 45.3%)      2.4%
 REDUCED MASS        0.4742         C  5 -- H 10          +9.0% ( 45.3%)      2.4%
 EFFECTIVE MASS      3.0069
 FORCE CONSTANT      0.1813

 VIBRATION         10    5A"          ATOM PAIR      ENERGY CONTRIBUTION    RADIAL
 FREQUENCY           992.75         C  4 -- H  6         +26.2% ( 62.8%)      5.7%
 TRANSITION DIPOLE   0.2354         C  4 -- H  7         +26.2% ( 62.8%)      5.7%
 TRAVEL (Ang.)       0.4884         C  5 -- H  9         +14.2% ( 46.1%)     10.2%
 REDUCED MASS        0.2847         C  5 -- H 10         +14.2% ( 46.1%)     10.2%
 EFFECTIVE MASS      2.2391
 FORCE CONSTANT      0.1653

 VIBRATION         11    6A'          ATOM PAIR      ENERGY CONTRIBUTION    RADIAL
 FREQUENCY          1029.36         C  5 -- H  8         +32.7% ( 75.8%)     17.9%
 TRANSITION DIPOLE   0.6356         C  5 -- H  9         +16.3% ( 53.6%)      3.3%
 TRAVEL (Ang.)       0.3246         C  5 -- H 10         +16.3% ( 53.6%)      3.3%
 REDUCED MASS        0.6216         C  4 -- C  5         +12.4% ( 46.7%)      2.5%
 EFFECTIVE MASS      3.9819
 FORCE CONSTANT      0.3881

 VIBRATION         12    6A"          ATOM PAIR      ENERGY CONTRIBUTION    RADIAL
 FREQUENCY          1133.75         C  4 -- H  6         +18.5% ( 53.2%)      9.7%
 TRANSITION DIPOLE   0.1765         C  4 -- H  7         +18.5% ( 53.2%)      9.7%
 TRAVEL (Ang.)       0.3308         C  5 -- H 10         +14.8% ( 47.6%)     18.5%
 REDUCED MASS        0.5435         C  5 -- H  9         +14.8% ( 47.6%)     18.5%
 EFFECTIVE MASS      3.3654         C  4 -- C  5         +12.3% ( 43.4%)      0.0%
 FORCE CONSTANT      0.4116         C  5 -- H  8         +10.2% ( 39.6%)      0.0%

 VIBRATION         13    7A'          ATOM PAIR      ENERGY CONTRIBUTION    RADIAL
 FREQUENCY          1169.61         C  4 -- C  5         +30.2% ( 90.9%)     98.4%
 TRANSITION DIPOLE   0.2316         S  3 -- C  5         +10.7% ( 54.0%)     45.8%
 TRAVEL (Ang.)       0.1315         C  5 -- H  8         +10.2% ( 52.8%)      4.1%
 REDUCED MASS        3.3359         C  5 -- H 10          +9.9% ( 51.9%)     27.5%
 EFFECTIVE MASS      9.7136
 FORCE CONSTANT      2.6887

 VIBRATION         14    8A'          ATOM PAIR      ENERGY CONTRIBUTION    RADIAL
 FREQUENCY          1223.45         C  4 -- H  7         +39.1% ( 65.9%)      0.2%
 TRANSITION DIPOLE   0.0717         C  4 -- H  6         +39.1% ( 65.9%)      0.2%
 TRAVEL (Ang.)       0.3090         C  4 -- C  5          +8.9% ( 31.4%)     35.4%
 REDUCED MASS        0.5774         S  3 -- C  4          +5.8% ( 25.3%)     64.5%
 EFFECTIVE MASS      2.4701
 FORCE CONSTANT      0.5092

 VIBRATION         15    7A"          ATOM PAIR      ENERGY CONTRIBUTION    RADIAL
 FREQUENCY          1248.69         C  5 -- H  8         +45.2% ( 57.3%)      0.0%
 TRANSITION DIPOLE   0.5085         C  5 -- H  9         +24.4% ( 42.1%)      5.9%
 TRAVEL (Ang.)       0.3842         C  5 -- H 10         +24.4% ( 42.1%)      5.9%
 REDUCED MASS        0.3659         S  3 -- C  5          +2.8% ( 14.2%)      0.0%
 EFFECTIVE MASS      1.3102
 FORCE CONSTANT      0.3361

 VIBRATION         16    9A'          ATOM PAIR      ENERGY CONTRIBUTION    RADIAL
 FREQUENCY          1248.74         C  5 -- H 10         +39.7% ( 55.5%)      1.3%
 TRANSITION DIPOLE   0.5454         C  5 -- H  9         +39.7% ( 55.5%)      1.3%
 TRAVEL (Ang.)       0.3711         C  5 -- H  8         +11.1% ( 29.3%)     41.4%
 REDUCED MASS        0.3921         S  3 -- C  5          +4.1% ( 17.8%)     31.8%
 EFFECTIVE MASS      1.4853
 FORCE CONSTANT      0.3602

 VIBRATION         17   10A'          ATOM PAIR      ENERGY CONTRIBUTION    RADIAL
 FREQUENCY          1277.85         C  4 -- H  7         +36.6% ( 64.7%)      2.1%
 TRANSITION DIPOLE   0.3900         C  4 -- H  6         +36.6% ( 64.7%)      2.1%
 TRAVEL (Ang.)       0.2793         C  4 -- C  5         +12.9% ( 38.5%)     99.6%
 REDUCED MASS        0.6767         S  3 -- C  4          +9.4% ( 32.9%)      1.1%
 EFFECTIVE MASS      2.8455
 FORCE CONSTANT      0.6510

 VIBRATION         18   11A'          ATOM PAIR      ENERGY CONTRIBUTION    RADIAL
 FREQUENCY          1335.07         C  5 -- H 10         +28.6% ( 57.0%)      1.7%
 TRANSITION DIPOLE   0.8121         C  5 -- H  9         +28.6% ( 57.0%)      1.7%
 TRAVEL (Ang.)       0.3138         C  5 -- H  8         +27.1% ( 55.5%)      1.5%
 REDUCED MASS        0.5129         S  3 -- C  5          +7.8% ( 29.7%)     57.2%
 EFFECTIVE MASS      2.2522
 FORCE CONSTANT      0.5386

 VIBRATION         19   12A'          ATOM PAIR      ENERGY CONTRIBUTION    RADIAL
 FREQUENCY          2293.26         C  1 -- N  2         +74.5% ( 99.9%)    100.0%
 TRANSITION DIPOLE   2.4831         C  1 -- S  3         +25.5% ( 58.5%)     99.8%
 TRAVEL (Ang.)       0.0673
 REDUCED MASS        6.4852
 EFFECTIVE MASS     12.8578
 FORCE CONSTANT     20.0948

 VIBRATION         20    8A"          ATOM PAIR      ENERGY CONTRIBUTION    RADIAL
 FREQUENCY          2654.30         C  4 -- H  6         +43.2% ( 68.1%)     97.9%
 TRANSITION DIPOLE   0.4136         C  4 -- H  7         +43.2% ( 68.1%)     97.9%
 TRAVEL (Ang.)       0.2530         C  5 -- H  9          +5.9% ( 25.1%)     98.1%
 REDUCED MASS        0.3969         C  5 -- H 10          +5.9% ( 25.1%)     98.1%
 EFFECTIVE MASS      1.4455
 FORCE CONSTANT      1.6474

 VIBRATION         21   13A'          ATOM PAIR      ENERGY CONTRIBUTION    RADIAL
 FREQUENCY          2681.37         C  5 -- H  8         +63.0% ( 82.1%)     99.5%
 TRANSITION DIPOLE   0.6012         C  5 -- H  9         +16.8% ( 42.3%)     86.1%
 TRAVEL (Ang.)       0.2300         C  5 -- H 10         +16.8% ( 42.3%)     86.1%
 REDUCED MASS        0.4755         C  4 -- H  6          +0.9% (  9.8%)     97.9%
 EFFECTIVE MASS      1.4444
 FORCE CONSTANT      2.0141

 VIBRATION         22    9A"          ATOM PAIR      ENERGY CONTRIBUTION    RADIAL
 FREQUENCY          2689.97         C  5 -- H  9         +43.0% ( 67.7%)     97.7%
 TRANSITION DIPOLE   0.8785         C  5 -- H 10         +43.0% ( 67.7%)     97.7%
 TRAVEL (Ang.)       0.2506         C  4 -- H  7          +5.7% ( 24.6%)     97.5%
 REDUCED MASS        0.3991         C  4 -- H  6          +5.7% ( 24.6%)     97.5%
 EFFECTIVE MASS      1.4762
 FORCE CONSTANT      1.7013

 VIBRATION         23   14A'          ATOM PAIR      ENERGY CONTRIBUTION    RADIAL
 FREQUENCY          2727.25         C  4 -- H  6         +48.3% ( 68.5%)     96.6%
 TRANSITION DIPOLE   0.6579         C  4 -- H  7         +48.3% ( 68.5%)     96.6%
 TRAVEL (Ang.)       0.2316         C  5 -- H  8          +2.4% ( 15.1%)     98.5%
 REDUCED MASS        0.4609         S  3 -- C  4          +0.5% (  6.9%)     29.6%
 EFFECTIVE MASS      1.2400
 FORCE CONSTANT      2.0196

 VIBRATION         24   15A'          ATOM PAIR      ENERGY CONTRIBUTION    RADIAL
 FREQUENCY          2782.73         C  5 -- H  9         +33.1% ( 55.5%)     95.4%
 TRANSITION DIPOLE   0.5256         C  5 -- H 10         +33.1% ( 55.5%)     95.4%
 TRAVEL (Ang.)       0.2737         C  5 -- H  8         +32.6% ( 55.1%)     95.3%
 REDUCED MASS        0.3236         S  3 -- C  5          +0.3% (  5.6%)     58.0%
 EFFECTIVE MASS      1.1482
 FORCE CONSTANT      1.4763

      SYMMETRY NUMBER FOR POINT-GROUP Cs  =  1


          SYSTEM IS A GROUND STATE


 All coordinates are Cartesian
 etscn


          MOLECULE IS NOT LINEAR

          THERE ARE 24 GENUINE VIBRATIONS IN THIS SYSTEM
          THIS THERMODYNAMICS CALCULATION IS LIMITED TO
          MOLECULES WHICH HAVE NO INTERNAL ROTATIONS




                    CALCULATED THERMODYNAMIC PROPERTIES
                                          *
   TEMP. (K)   PARTITION FUNCTION   H.O.F.    ENTHALPY  HEAT CAPACITY ENTROPY
                                   KCAL/MOL   CAL/MOLE    CAL/K/MOL  CAL/K/MOL


 298.00  VIB.     0.4435D+02                  2251.6949    14.5291    15.0918
         ROT.     0.1154D+06                   888.2803     2.9808    26.1439
         INT.     0.5118D+07                  3139.9752    17.5099    41.2357
         TRA.     0.7864D+27                  1480.4672     4.9680    39.3054
         TOT.                       27.140    4620.4423    22.4780    80.5411

 200.00  VIB.     0.1243D+02                  1055.1128     9.9397    10.2835
         ROT.     0.6345D+05                   596.1613     2.9808    24.9552
         INT.     0.7886D+06                  1651.2740    12.9205    35.2387
         TRA.     0.4324D+27                   993.6021     4.9680    37.3243
         TOT.                       25.165    2644.8762    17.8885    72.5630

 210.00  VIB.     0.1419D+02                  1156.7607    10.3908    10.7793
         ROT.     0.6826D+05                   625.9693     2.9808    25.1006
         INT.     0.9686D+06                  1782.7300    13.3716    35.8800
         TRA.     0.4652D+27                  1043.2822     4.9680    37.5667
         TOT.                       25.346    2826.0123    18.3396    73.4466

 220.00  VIB.     0.1619D+02                  1262.9458    10.8471    11.2732
         ROT.     0.7320D+05                   655.7774     2.9808    25.2393
         INT.     0.1185D+07                  1918.7232    13.8279    36.5125
         TRA.     0.4988D+27                  1092.9623     4.9680    37.7978
         TOT.                       25.532    3011.6855    18.7959    74.3103

 230.00  VIB.     0.1845D+02                  1373.7195    11.3085    11.7656
         ROT.     0.7824D+05                   685.5855     2.9808    25.3718
         INT.     0.1444D+07                  2059.3050    14.2893    37.1374
         TRA.     0.5332D+27                  1142.6424     4.9680    38.0186
         TOT.                       25.722    3201.9475    19.2573    75.1560

 240.00  VIB.     0.2102D+02                  1489.1305    11.7745    12.2567
         ROT.     0.8340D+05                   715.3935     2.9808    25.4987
         INT.     0.1753D+07                  2204.5241    14.7553    37.7553
         TRA.     0.5684D+27                  1192.3226     4.9680    38.2301
         TOT.                       25.917    3396.8466    19.7233    75.9854

 250.00  VIB.     0.2393D+02                  1609.2220    12.2444    12.7468
         ROT.     0.8867D+05                   745.2016     2.9808    25.6203
         INT.     0.2122D+07                  2354.4236    15.2253    38.3672
         TRA.     0.6043D+27                  1242.0027     4.9680    38.4329
         TOT.                       26.116    3596.4263    20.1933    76.8001

 260.00  VIB.     0.2724D+02                  1734.0302    12.7177    13.2363
         ROT.     0.9404D+05                   775.0097     2.9808    25.7372
         INT.     0.2561D+07                  2509.0399    15.6985    38.9735
         TRA.     0.6409D+27                  1291.6828     4.9680    38.6277
         TOT.                       26.321    3800.7226    20.6665    77.6013

 270.00  VIB.     0.3098D+02                  1863.5830    13.1932    13.7252
         ROT.     0.9952D+05                   804.8177     2.9808    25.8497
         INT.     0.3083D+07                  2668.4007    16.1740    39.5749
         TRA.     0.6782D+27                  1341.3629     4.9680    38.8152
         TOT.                       26.530    4009.7636    21.1420    78.3901

 280.00  VIB.     0.3523D+02                  1997.8991    13.6702    14.2136
         ROT.     0.1051D+06                   834.6258     2.9808    25.9582
         INT.     0.3703D+07                  2832.5249    16.6510    40.1717
         TRA.     0.7162D+27                  1391.0430     4.9680    38.9959
         TOT.                       26.743    4223.5679    21.6190    79.1676

 290.00  VIB.     0.4004D+02                  2136.9877    14.1476    14.7016
         ROT.     0.1108D+06                   864.4339     2.9808    26.0628
         INT.     0.4436D+07                  3001.4216    17.1284    40.7644
         TRA.     0.7549D+27                  1440.7231     4.9680    39.1702
         TOT.                       26.962    4442.1447    22.0964    79.9346

 300.00  VIB.     0.4550D+02                  2280.8484    14.6244    15.1893
         ROT.     0.1166D+06                   894.2419     2.9808    26.1638
         INT.     0.5303D+07                  3175.0903    17.6052    41.3531
         TRA.     0.7943D+27                  1490.4032     4.9680    39.3387
         TOT.                       27.185    4665.4935    22.5732    80.6918

 310.00  VIB.     0.5168D+02                  2429.4714    15.0999    15.6766
         ROT.     0.1224D+06                   924.0500     2.9808    26.2615
         INT.     0.6327D+07                  3353.5214    18.0807    41.9381
         TRA.     0.8344D+27                  1540.0833     4.9680    39.5016
         TOT.                       27.414    4893.6047    23.0487    81.4397

 320.00  VIB.     0.5868D+02                  2582.8380    15.5730    16.1635
         ROT.     0.1284D+06                   953.8580     2.9808    26.3562
         INT.     0.7535D+07                  3536.6960    18.5538    42.5196
         TRA.     0.8751D+27                  1589.7634     4.9680    39.6593
         TOT.                       27.646    5126.4594    23.5218    82.1789

 330.00  VIB.     0.6661D+02                  2740.9211    16.0431    16.6499
         ROT.     0.1345D+06                   983.6661     2.9808    26.4479
         INT.     0.8957D+07                  3724.5872    19.0239    43.0978
         TRA.     0.9164D+27                  1639.4435     4.9680    39.8122
         TOT.                       27.884    5364.0308    23.9919    82.9099

 340.00  VIB.     0.7560D+02                  2903.6863    16.5093    17.1357
         ROT.     0.1406D+06                  1013.4742     2.9808    26.5369
         INT.     0.1063D+08                  3917.1605    19.4901    43.6726
         TRA.     0.9584D+27                  1689.1236     4.9680    39.9605
         TOT.                       28.126    5606.2841    24.4581    83.6331

 350.00  VIB.     0.8577D+02                  3071.0921    16.9711    17.6210
         ROT.     0.1469D+06                  1043.2822     2.9808    26.6233
         INT.     0.1260D+08                  4114.3744    19.9519    44.2443
         TRA.     0.1001D+28                  1738.8037     4.9680    40.1045
         TOT.                       28.373    5853.1781    24.9199    84.3488

 360.00  VIB.     0.9729D+02                  3243.0913    17.4279    18.1055
         ROT.     0.1532D+06                  1073.0903     2.9808    26.7073
         INT.     0.1491D+08                  4316.1816    20.4087    44.8128
         TRA.     0.1044D+28                  1788.4838     4.9680    40.2444
         TOT.                       28.625    6104.6655    25.3767    85.0572

 370.00  VIB.     0.1103D+03                  3419.6315    17.8792    18.5892
         ROT.     0.1596D+06                  1102.8984     2.9808    26.7889
         INT.     0.1762D+08                  4522.5298    20.8600    45.3781
         TRA.     0.1088D+28                  1838.1639     4.9680    40.3806
         TOT.                       28.881    6360.6938    25.8280    85.7587

 380.00  VIB.     0.1251D+03                  3600.6558    18.3247    19.0719
         ROT.     0.1662D+06                  1132.7064     2.9808    26.8684
         INT.     0.2079D+08                  4733.3622    21.3055    45.9403
         TRA.     0.1132D+28                  1887.8440     4.9680    40.5130
         TOT.                       29.141    6621.2063    26.2735    86.4534

 390.00  VIB.     0.1418D+03                  3786.1040    18.7639    19.5536
         ROT.     0.1728D+06                  1162.5145     2.9808    26.9459
         INT.     0.2450D+08                  4948.6185    21.7447    46.4994
         TRA.     0.1177D+28                  1937.5242     4.9680    40.6421
         TOT.                       29.406    6886.1426    26.7127    87.1415

 400.00  VIB.     0.1607D+03                  3975.9127    19.1967    20.0341
         ROT.     0.1795D+06                  1192.3226     2.9808    27.0213
         INT.     0.2884D+08                  5168.2353    22.1775    47.0554
         TRA.     0.1223D+28                  1987.2043     4.9680    40.7679
         TOT.                       29.675    7155.4396    27.1456    87.8233

   *: NOTE: HEATS OF FORMATION ARE RELATIVE TO THE
            ELEMENTS IN THEIR STANDARD STATE AT 298K
              (=  Standard Enthalpy of Formation).

            Hvib:  Zero-point energy is not included.
                   frequencies of less than zero cm-1 are not included.
            Hrot = (3/2)RT
            Htra = (3/2)RT + pV = (5/2)RT

            Heat capacity is Cp, not Cv

          For more information, see: HTTP://OpenMOPAC.net/Manual/thermochemistry.html


           FORCE CONSTANT IN CARTESIAN COORDINATES (Millidynes/A)

    ATOM   CHEMICAL       X               Y               Z
   NUMBER   SYMBOL  FORCE CONSTANT  FORCE CONSTANT  FORCE CONSTANT

      1       C       22.083444        1.299852        0.857540
      2       N       19.900150        0.294146        0.299130
      3       S        4.807326        3.603514        0.373330
      4       C        7.109926        4.841825        5.897835
      5       C        7.325956        6.174884        6.278031
      6       H        1.232932        1.377865        2.764323
      7       H        1.232905        1.378625        2.763589
      8       H        1.131343        3.675186        0.508956
      9       H        1.305862        1.226486        2.835402
     10       H        1.305890        1.225735        2.836126

 **********************
 *                    *
 * JOB ENDED NORMALLY *
 *                    *
 **********************



 TOTAL JOB TIME:             1.49 SECONDS

 == MOPAC DONE ==
