 *******************************************************************************
 **                                                                           **
 **                              MOPAC v22.1.1                                **
 **                                                                           **
 *******************************************************************************
 **          Digital Object Identifier (DOI): 10.5281/zenodo.6511958          **
 **    Visit the DOI location for information on how to cite this program.    **
 *******************************************************************************

                              PM6 CALCULATION RESULTS

 *******************************************************************************
 *  CALCULATION DONE:                                Mon Apr 22 11:30:44 2024  *
 *  PM6        - The PM6 Hamiltonian to be used
 *  MMOK       - APPLY MM CORRECTION TO CONH BARRIER
 *  STATIC     - CALCULATE STATIC FIELD POLARIZABILITIES
 *  POLAR      - CALCULATE FIRST, SECOND AND THIRD-ORDER POLARIZABILITIES
 *  PRECISE    - TIGHTER CRITERIA TO BE USED
 *  XYZ        - CARTESIAN COORDINATE SYSTEM TO BE USED
 *  T=         - A TIME OF 172800.0 SECONDS REQUESTED
 *  DUMP=N     - RESTART FILE WRITTEN EVERY 7200.0 SECONDS REQUESTED
 *  CYCLES=    - DO A MAXIMUM OF 8000 STEPS
 *  ENPART     - ENERGY TO BE PARTITIONED INTO COMPONENTS
 *  PRTXYZ     - PRINT CARTESIAN COORDINATES
 *  DISP       - PRINT DISPERSION AND HYDROGEN BOND ENERGIES
 *  BONDS      - FINAL BOND-ORDER MATRIX TO BE PRINTED
 *  LARGE      - EXPANDED OUTPUT TO BE PRINTED
 *  SUPER      - PRINT SUPERDELOCALIZABILITIES
 *  ALLVEC     - PRINT ALL EIGENVECTORS
 *******************************************************************************
PM6 PRECISE POLAR MMOK XYZ ENPART STATIC SUPER BONDS LARGE PRTXYZ DISP ALLVEC CYCLES = 8000
 emi
 All coordinates are Cartesian
   ATOM   CHEMICAL          X               Y               Z
  NUMBER   SYMBOL      (ANGSTROMS)     (ANGSTROMS)     (ANGSTROMS)
 
     1       N          0.12400000  *   0.08800000  *  -0.28700000  *
     2       C         -0.60000000  *  -1.08500000  *  -0.20400000  *
     3       C         -1.87500000  *  -0.71100000  *   0.14200000  *
     4       N         -1.95600000  *   0.65400000  *   0.27600000  *
     5       C         -0.74700000  *   1.09800000  *   0.01500000  *
     6       C          1.54900000  *   0.22000000  *  -0.57800000  *
     7       H         -0.15600000  *  -2.04700000  *  -0.40000000  *
     8       H         -2.73400000  *  -1.34600000  *   0.29400000  *
     9       H         -0.43800000  *   2.13300000  *   0.02100000  *
    10       H          1.77600000  *  -0.38500000  *  -1.46100000  *
    11       C          2.44400000  *  -0.18300000  *   0.59500000  *
    12       H          1.72500000  *   1.26200000  *  -0.85200000  *
    13       H          2.29300000  *  -1.22900000  *   0.86700000  *
    14       H          2.23400000  *   0.43100000  *   1.47300000  *
    15       H          3.49600000  *  -0.05000000  *   0.32600000  *
 


          CARTESIAN COORDINATES 

    NO.       ATOM           X           Y           Z

     1         N          0.1240      0.0880     -0.2870
     2         C         -0.6000     -1.0850     -0.2040
     3         C         -1.8750     -0.7110      0.1420
     4         N         -1.9560      0.6540      0.2760
     5         C         -0.7470      1.0980      0.0150
     6         C          1.5490      0.2200     -0.5780
     7         H         -0.1560     -2.0470     -0.4000
     8         H         -2.7340     -1.3460      0.2940
     9         H         -0.4380      2.1330      0.0210
    10         H          1.7760     -0.3850     -1.4610
    11         C          2.4440     -0.1830      0.5950
    12         H          1.7250      1.2620     -0.8520
    13         H          2.2930     -1.2290      0.8670
    14         H          2.2340      0.4310      1.4730
    15         H          3.4960     -0.0500      0.3260

 General Reference for PM6:
 "Optimization of Parameters for Semiempirical Methods V: Modification of NDDO Approximations
 and Application to 70 Elements", J. J. P. Stewart, J. Mol. Mod., 13, 1173-1213 (2007)
 URL: https://link.springer.com/article/10.1007/s00894-007-0233-4

           Empirical Formula: C5 H8 N2  =    15 atoms



      MOLECULAR POINT GROUP   :   C1  


      RHF CALCULATION, NO. OF DOUBLY OCCUPIED LEVELS = 19


          Geometry optimization using EF

          DIAGONAL MATRIX USED AS START HESSIAN

 CYCLE:     1 TIME:   0.008 TIME LEFT:  2.00D  GRAD.:   132.095 HEAT:  30.68128
 CYCLE:     2 TIME:   0.016 TIME LEFT:  2.00D  GRAD.:   129.704 HEAT:  30.01304
 CYCLE:     3 TIME:   0.004 TIME LEFT:  2.00D  GRAD.:    58.529 HEAT:  27.13952
 CYCLE:     4 TIME:   0.020 TIME LEFT:  2.00D  GRAD.:    26.934 HEAT:  26.25477
 CYCLE:     5 TIME:   0.008 TIME LEFT:  2.00D  GRAD.:    15.901 HEAT:  26.01890
 CYCLE:     6 TIME:   0.008 TIME LEFT:  2.00D  GRAD.:    20.776 HEAT:  26.01011
 CYCLE:     7 TIME:   0.008 TIME LEFT:  2.00D  GRAD.:    10.669 HEAT:  25.90659
 CYCLE:     8 TIME:   0.016 TIME LEFT:  2.00D  GRAD.:     7.348 HEAT:  25.87682
 CYCLE:     9 TIME:   0.004 TIME LEFT:  2.00D  GRAD.:     6.389 HEAT:  25.85710
 CYCLE:    10 TIME:   0.004 TIME LEFT:  2.00D  GRAD.:     8.782 HEAT:  25.84840
 CYCLE:    11 TIME:   0.008 TIME LEFT:  2.00D  GRAD.:     6.653 HEAT:  25.82837
 CYCLE:    12 TIME:   0.008 TIME LEFT:  2.00D  GRAD.:     7.508 HEAT:  25.82481
 CYCLE:    13 TIME:   0.004 TIME LEFT:  2.00D  GRAD.:     7.585 HEAT:  25.82086
 CYCLE:    14 TIME:   0.008 TIME LEFT:  2.00D  GRAD.:     8.306 HEAT:  25.81936
 CYCLE:    15 TIME:   0.004 TIME LEFT:  2.00D  GRAD.:     6.673 HEAT:  25.81390
 CYCLE:    16 TIME:   0.008 TIME LEFT:  2.00D  GRAD.:     7.998 HEAT:  25.81094
 CYCLE:    17 TIME:   0.004 TIME LEFT:  2.00D  GRAD.:     4.006 HEAT:  25.79833
 CYCLE:    18 TIME:   0.008 TIME LEFT:  2.00D  GRAD.:     3.268 HEAT:  25.79386
 CYCLE:    19 TIME:   0.008 TIME LEFT:  2.00D  GRAD.:     1.191 HEAT:  25.78936
 CYCLE:    20 TIME:   0.004 TIME LEFT:  2.00D  GRAD.:     3.156 HEAT:  25.78834
 CYCLE:    21 TIME:   0.008 TIME LEFT:  2.00D  GRAD.:     2.502 HEAT:  25.78363
 CYCLE:    22 TIME:   0.004 TIME LEFT:  2.00D  GRAD.:     5.111 HEAT:  25.79213
 CYCLE:    23 TIME:   0.004 TIME LEFT:  2.00D  GRAD.:     1.739 HEAT:  25.78031
 CYCLE:    24 TIME:   0.008 TIME LEFT:  2.00D  GRAD.:     2.447 HEAT:  25.78136
 CYCLE:    25 TIME:   0.008 TIME LEFT:  2.00D  GRAD.:     0.718 HEAT:  25.77864
 CYCLE:    26 TIME:   0.004 TIME LEFT:  2.00D  GRAD.:     2.293 HEAT:  25.77974
 CYCLE:    27 TIME:   0.004 TIME LEFT:  2.00D  GRAD.:     1.578 HEAT:  25.77783
 CYCLE:    28 TIME:   0.008 TIME LEFT:  2.00D  GRAD.:     2.202 HEAT:  25.77801
 CYCLE:    29 TIME:   0.004 TIME LEFT:  2.00D  GRAD.:     0.886 HEAT:  25.77482
 CYCLE:    30 TIME:   0.004 TIME LEFT:  2.00D  GRAD.:     1.081 HEAT:  25.77270
 CYCLE:    31 TIME:   0.008 TIME LEFT:  2.00D  GRAD.:     1.420 HEAT:  25.77182
 CYCLE:    32 TIME:   0.008 TIME LEFT:  2.00D  GRAD.:     0.893 HEAT:  25.77417
 CYCLE:    33 TIME:   0.008 TIME LEFT:  2.00D  GRAD.:     0.711 HEAT:  25.77506
 CYCLE:    34 TIME:   0.004 TIME LEFT:  2.00D  GRAD.:     0.376 HEAT:  25.77382
 CYCLE:    35 TIME:   0.008 TIME LEFT:  2.00D  GRAD.:     0.494 HEAT:  25.77202
 CYCLE:    36 TIME:   0.004 TIME LEFT:  2.00D  GRAD.:     0.980 HEAT:  25.76946
 CYCLE:    37 TIME:   0.008 TIME LEFT:  2.00D  GRAD.:     1.786 HEAT:  25.76496
 CYCLE:    38 TIME:   0.008 TIME LEFT:  2.00D  GRAD.:     2.187 HEAT:  25.75665
 CYCLE:    39 TIME:   0.004 TIME LEFT:  2.00D  GRAD.:     3.769 HEAT:  25.74336
 CYCLE:    40 TIME:   0.008 TIME LEFT:  2.00D  GRAD.:     1.524 HEAT:  25.73056
 CYCLE:    41 TIME:   0.008 TIME LEFT:  2.00D  GRAD.:     1.513 HEAT:  25.72821
 CYCLE:    42 TIME:   0.008 TIME LEFT:  2.00D  GRAD.:     1.143 HEAT:  25.72214
 CYCLE:    43 TIME:   0.004 TIME LEFT:  2.00D  GRAD.:     0.669 HEAT:  25.71929
 CYCLE:    44 TIME:   0.008 TIME LEFT:  2.00D  GRAD.:     0.331 HEAT:  25.71786
 CYCLE:    45 TIME:   0.008 TIME LEFT:  2.00D  GRAD.:     0.269 HEAT:  25.71759
 CYCLE:    46 TIME:   0.008 TIME LEFT:  2.00D  GRAD.:     0.435 HEAT:  25.71791
 CYCLE:    47 TIME:   0.008 TIME LEFT:  2.00D  GRAD.:     0.354 HEAT:  25.71762
 CYCLE:    48 TIME:   0.004 TIME LEFT:  2.00D  GRAD.:     0.140 HEAT:  25.71775
 CYCLE:    49 TIME:   0.004 TIME LEFT:  2.00D  GRAD.:     0.048 HEAT:  25.71777

     GRADIENT =  0.04830 IS LESS THAN CUTOFF =  0.05000



 -------------------------------------------------------------------------------
 PM6 PRECISE POLAR MMOK XYZ ENPART STATIC SUPER BONDS LARGE PRTXYZ DISP ALLVEC CYCLES = 8000
 emi
 All coordinates are Cartesian


     GEOMETRY OPTIMISED USING EIGENVECTOR FOLLOWING (EF).     
     SCF FIELD WAS ACHIEVED                                   


                              PM6 CALCULATION
                                                       MOPAC v22.1.1 MacOS
                                                       Mon Apr 22 11:30:44 2024




          FINAL HEAT OF FORMATION =         25.71777 KCAL/MOL =     107.60315 KJ/MOL

          TOTAL ENERGY            =     -24897.96325 KCAL/MOL = ELECTRONIC ENERGY + CORE-CORE REPULSION
          ENERGY OF ATOMS         =      24924.16414 KCAL/MOL
                              SUM =         26.20089 KCAL/MOL
          DISPERSION ENERGY       =          0.00000 KCAL/MOL
          MM CORRECTION FOR >N-   =         -0.48312 KCAL/MOL
                              SUM =         25.71777 KCAL/MOL = FINAL HEAT OF FORMATION



          TOTAL ENERGY            =      -1079.67787 EV
          ELECTRONIC ENERGY       =      -4772.27042 EV 
          CORE-CORE REPULSION     =       3692.59255 EV
          COSMO AREA              =        140.16 SQUARE ANGSTROMS
          COSMO VOLUME            =        132.03 CUBIC ANGSTROMS

          GRADIENT NORM           =          0.04830          =       0.01247 PER ATOM
          IONIZATION POTENTIAL    =          9.267194 EV
          HOMO LUMO ENERGIES (EV) =         -9.267  0.762
          NO. OF FILLED LEVELS    =         19
          MOLECULAR WEIGHT        =         96.1316         POINT GROUP:  C1  

          MOLECULAR DIMENSIONS (Angstroms)

            Atom       Atom       Distance
            H    15    H     8     6.42376
            H     9    H     7     4.20949
            H    12    H    14     2.52796


          SCF CALCULATIONS        =         59
 
          WALL-CLOCK TIME         =      0.359 SECONDS
          COMPUTATION TIME        =      2.186 SECONDS




   ATOM   CHEMICAL          X               Y               Z
  NUMBER   SYMBOL      (ANGSTROMS)     (ANGSTROMS)     (ANGSTROMS)
 
     1       N          0.13567799  *   0.06274764  *  -0.32261198  *
     2       C         -0.63617369  *  -1.10863248  *  -0.31104766  *
     3       C         -1.91206490  *  -0.72477050  *   0.11026646  *
     4       N         -1.93985573  *   0.64542140  *   0.37173518  *
     5       C         -0.69492169  *   1.11101138  *   0.11825564  *
     6       C          1.57581937  *   0.14620757  *  -0.62775614  *
     7       H         -0.25653697  *  -2.06949277  *  -0.59210421  *
     8       H         -2.78959461  *  -1.33375679  *   0.23527996  *
     9       H         -0.36895349  *   2.13294854  *   0.21744285  *
    10       H          1.82753834  *  -0.61078757  *  -1.40690172  *
    11       C          2.42317977  *  -0.07521152  *   0.62253521  *
    12       H          1.79230245  *   1.14566842  *  -1.07253799  *
    13       H          2.24502108  *  -1.06405515  *   1.06606842  *
    14       H          2.20190082  *   0.66490783  *   1.40319135  *
    15       H          3.49294244  *  -0.00347082  *   0.39277617  *

                             CARTESIAN COORDINATES

   1    N        0.135677988     0.062747638    -0.322611982
   2    C       -0.636173686    -1.108632483    -0.311047659
   3    C       -1.912064900    -0.724770499     0.110266457
   4    N       -1.939855731     0.645421396     0.371735183
   5    C       -0.694921687     1.111011377     0.118255643
   6    C        1.575819370     0.146207572    -0.627756144
   7    H       -0.256536966    -2.069492768    -0.592104205
   8    H       -2.789594611    -1.333756789     0.235279961
   9    H       -0.368953488     2.132948536     0.217442850
  10    H        1.827538337    -0.610787574    -1.406901716
  11    C        2.423179768    -0.075211524     0.622535214
  12    H        1.792302454     1.145668425    -1.072537993
  13    H        2.245021081    -1.064055147     1.066068417
  14    H        2.201900818     0.664907826     1.403191354
  15    H        3.492942444    -0.003470824     0.392776171


           Empirical Formula: C5 H8 N2  =    15 atoms



      MOLECULAR POINT GROUP   :   C1  


                EIGENVECTORS  


   Root No.       1         2         3         4         5         6         7         8

                 1 A       2 A       3 A       4 A       5 A       6 A       7 A       8 A   

               -33.881   -29.975   -26.764   -25.412   -22.800   -20.772   -20.287   -17.848
  
  S   N    1    0.5759    0.4247   -0.3127   -0.1287    0.0131    0.0656   -0.2462    0.0787
  Px  N    1   -0.1312    0.2192    0.1373   -0.0295   -0.3034   -0.0110   -0.0517    0.4161
  Py  N    1   -0.0014   -0.0145    0.0901   -0.3161    0.0137    0.4165    0.1237   -0.0385
  Pz  N    1    0.0445   -0.0448    0.0106   -0.0375    0.1456    0.0900   -0.0051   -0.0142
  S   C    2    0.3091    0.0135   -0.2281    0.4700    0.1179   -0.2125    0.2960    0.0580
  Px  C    2    0.0085    0.1596   -0.0796   -0.1019    0.0233   -0.3116   -0.1880    0.0991
  Py  C    2    0.1869    0.0111   -0.0718   -0.0310    0.0445    0.0333   -0.2349   -0.2856
  Pz  C    2    0.0317   -0.0390    0.0186    0.0250    0.0193    0.0967   -0.0042   -0.0341
  S   C    3    0.2675   -0.2489    0.0757    0.4161   -0.1660    0.4033    0.0790    0.1007
  Px  C    3    0.1208   -0.0150   -0.0810    0.0907    0.1296   -0.1444    0.1595   -0.2074
  Py  C    3    0.1190   -0.1266    0.1236   -0.0994   -0.0948   -0.0950   -0.2880   -0.1115
  Pz  C    3   -0.0113   -0.0186    0.0478   -0.0426   -0.0478    0.0230   -0.1021    0.0598
  S   N    4    0.3751   -0.4420    0.3687   -0.1010   -0.2308   -0.2345   -0.1948    0.1666
  Px  N    4    0.1733   -0.1132    0.0568   -0.1406    0.1010   -0.1414    0.1537   -0.0944
  Py  N    4   -0.0913    0.0833   -0.0254   -0.2067    0.1326   -0.2580    0.2166    0.0854
  Pz  N    4   -0.0645    0.0471   -0.0175    0.0015    0.0025   -0.0089   -0.0077    0.0693
  S   C    5    0.3721   -0.1179    0.0787   -0.4296    0.1934    0.0521    0.3544    0.0812
  Px  C    5   -0.0222    0.2224   -0.1621   -0.0356    0.0771    0.3538    0.0209   -0.0093
  Py  C    5   -0.1952    0.0270    0.0529   -0.0413   -0.0229   -0.0484    0.2355    0.2864
  Pz  C    5   -0.0312   -0.0530    0.0637    0.0077   -0.0084   -0.1057    0.0239    0.1044
  S   C    6    0.1455    0.4435    0.3240    0.0232   -0.3927   -0.0463    0.1815   -0.1274
  Px  C    6   -0.0962   -0.0931    0.1856    0.0918    0.1263   -0.0311    0.1477   -0.3688
  Py  C    6   -0.0056   -0.0162    0.0070   -0.0801   -0.0206    0.1647    0.0832   -0.0899
  Pz  C    6    0.0259    0.0551    0.0837    0.0199    0.1958    0.0654   -0.1309    0.2220
  S   H    7    0.0696    0.0310   -0.0839    0.2142    0.0338   -0.1949    0.2352    0.2150
  S   H    8    0.0524   -0.0735    0.0330    0.1810   -0.1062    0.2896    0.0538    0.1983
  S   H    9    0.0848   -0.0120    0.0429   -0.2160    0.0897    0.0551    0.3125    0.2121
  S   H   10    0.0498    0.1700    0.1347    0.0470   -0.2226   -0.1221    0.1313   -0.1727
  S   C   11    0.0499    0.2576    0.5065    0.1751    0.4091    0.0281   -0.0974    0.0312
  Px  C   11   -0.0292   -0.0686   -0.0111    0.0152    0.1103    0.0044   -0.0116   -0.1301
  Py  C   11    0.0029    0.0117    0.0159   -0.0199   -0.0259    0.0558    0.0433   -0.0606
  Pz  C   11   -0.0170   -0.0732   -0.0590   -0.0033    0.1721    0.0405   -0.1207    0.1948
  S   H   12    0.0507    0.1669    0.1515   -0.0222   -0.2095    0.0474    0.1850   -0.2147
  S   H   13    0.0233    0.1048    0.2093    0.0889    0.2271   -0.0106   -0.0933    0.1123
  S   H   14    0.0236    0.1039    0.2145    0.0668    0.2322    0.0530   -0.0733    0.0928
  S   H   15    0.0131    0.0950    0.2325    0.0872    0.2255    0.0126   -0.0352   -0.0937


   Root No.       9        10        11        12        13        14        15        16

                 9 A      10 A      11 A      12 A      13 A      14 A      15 A      16 A   

               -16.025   -15.743   -14.744   -14.622   -14.098   -13.703   -13.410   -12.738
  
  S   N    1   -0.0313   -0.0600    0.0157    0.0219   -0.1284   -0.0011   -0.0420   -0.0136
  Px  N    1    0.1097    0.0845   -0.1521    0.0250   -0.0253    0.1979   -0.2600    0.0573
  Py  N    1    0.1084   -0.0917   -0.1871   -0.3861   -0.0382   -0.0209   -0.0370    0.1261
  Pz  N    1    0.1404    0.4312    0.2172   -0.1192   -0.0784    0.1449    0.1037    0.0056
  S   C    2    0.1176   -0.0423    0.0398   -0.0526    0.0909    0.0147   -0.0324   -0.0358
  Px  C    2   -0.0215   -0.0728    0.3815   -0.0705   -0.0402   -0.0724    0.2382   -0.0806
  Py  C    2   -0.1893    0.0919   -0.0158    0.4664    0.0922   -0.0105   -0.0302   -0.1218
  Pz  C    2    0.0487    0.2951    0.0303    0.0683   -0.0376    0.2784    0.0089   -0.0129
  S   C    3   -0.1087    0.0318   -0.0205    0.1140   -0.0183    0.0144   -0.0209    0.0024
  Px  C    3    0.1835    0.1608   -0.2558    0.0140    0.2529    0.2634   -0.2563    0.0573
  Py  C    3    0.0580   -0.0754    0.1407   -0.1522    0.4202    0.0103   -0.1004    0.0515
  Pz  C    3    0.0125    0.1196    0.2159   -0.0597   -0.0586    0.2439    0.1601   -0.0146
  S   N    4    0.0814   -0.0982    0.0657   -0.0729   -0.0183   -0.0020   -0.0283   -0.0414
  Px  N    4    0.0537    0.1543   -0.2173    0.0422   -0.2036    0.1049    0.0457    0.0568
  Py  N    4   -0.0083   -0.0111   -0.1747    0.1682   -0.3443   -0.1081    0.0188   -0.0823
  Pz  N    4    0.0463    0.1668    0.1751   -0.0076   -0.0917    0.3424    0.1297   -0.0337
  S   C    5   -0.1234    0.0244    0.0582   -0.0061    0.0134   -0.0291    0.0544    0.0449
  Px  C    5   -0.0337    0.0250    0.2421   -0.1901    0.2549    0.0864    0.0215    0.0542
  Py  C    5   -0.1835   -0.0776    0.1754    0.3025    0.3116    0.0217   -0.1609   -0.0847
  Pz  C    5    0.0623    0.2582    0.1306    0.0839   -0.0901    0.3056    0.0727   -0.0279
  S   C    6    0.0298    0.1031   -0.0312    0.0133    0.0184   -0.0336    0.0131    0.0019
  Px  C    6   -0.0507    0.1162    0.2542   -0.0494    0.0103   -0.2302    0.1498   -0.0360
  Py  C    6    0.4497   -0.2309    0.0643    0.1084   -0.0103    0.0633    0.0266   -0.4939
  Pz  C    6    0.2256    0.3166    0.0689    0.0171   -0.0261   -0.3454   -0.3067   -0.0688
  S   H    7    0.1565   -0.1470    0.1241   -0.3672   -0.0035   -0.0584    0.0711    0.0500
  S   H    8   -0.1789   -0.0325    0.0994    0.1127   -0.3322   -0.1337    0.2019   -0.0590
  S   H    9   -0.1831   -0.0171    0.2175    0.1735    0.2843    0.0389   -0.0668   -0.0309
  S   H   10   -0.3115    0.0228   -0.0381   -0.0751    0.0333    0.0960    0.1957    0.3137
  S   C   11   -0.0094   -0.0310   -0.0124    0.0041    0.0001   -0.0519   -0.0272    0.0004
  Px  C   11   -0.1622   -0.3664    0.1770   -0.0440   -0.2670    0.3760   -0.3192    0.0328
  Py  C   11    0.4010   -0.1265    0.2186    0.3221   -0.0670   -0.0840    0.0064    0.4971
  Pz  C   11    0.0618   -0.2376   -0.2718    0.1109    0.1706    0.2609    0.4252    0.0679
  S   H   12    0.2228   -0.1666    0.0483    0.0705    0.0233    0.1019    0.1480   -0.3504
  S   H   13   -0.2084    0.0357   -0.2369   -0.1665    0.1244    0.0634    0.1520   -0.3292
  S   H   14    0.2237   -0.1351   -0.0608    0.2147    0.0966    0.0160    0.2643    0.2919
  S   H   15   -0.1028   -0.2324    0.1660   -0.0299   -0.2198    0.2044   -0.3147    0.0394


   Root No.      17        18        19        20        21        22        23        24

                17 A      18 A      19 A      20 A      21 A      22 A      23 A      24 A   

               -10.408   -10.176    -9.267     0.762     1.406     1.734     3.397     3.590
  
  S   N    1   -0.1042   -0.0101    0.0081    0.0945    0.4959   -0.0137   -0.0325   -0.0382
  Px  N    1    0.1396    0.1326   -0.0619   -0.0847    0.1339   -0.0137    0.0805    0.2767
  Py  N    1   -0.1456   -0.0954    0.0443    0.0833   -0.0092    0.0020   -0.0033   -0.1801
  Pz  N    1   -0.0110    0.5723   -0.2516   -0.4443    0.0829   -0.0502   -0.1697   -0.0492
  S   C    2   -0.0791    0.0103   -0.0007   -0.0291   -0.1832    0.0023    0.0051   -0.0681
  Px  C    2    0.2242    0.0766    0.1481    0.1119   -0.2374   -0.0775    0.1167    0.2077
  Py  C    2   -0.0482   -0.0435   -0.0970   -0.1440   -0.2568    0.0575    0.0112   -0.0623
  Pz  C    2   -0.0542    0.3237    0.5250    0.5314   -0.0893   -0.2935    0.0364   -0.0940
  S   C    3    0.0929   -0.0101    0.0033    0.0103    0.0571   -0.0016   -0.0034   -0.0443
  Px  C    3   -0.1288   -0.0611    0.1450   -0.0771    0.0350    0.1562    0.0651    0.2115
  Py  C    3    0.2179    0.0243   -0.0948    0.0641    0.0337   -0.1102   -0.1016   -0.3867
  Pz  C    3    0.0410   -0.2484    0.5346   -0.3037    0.0653    0.5704   -0.0567   -0.1242
  S   N    4   -0.4237    0.0370   -0.0069   -0.0057   -0.0325    0.0026    0.0778    0.2730
  Px  N    4    0.5485   -0.2092   -0.0111   -0.0309    0.1059   -0.1579    0.0646    0.2627
  Py  N    4   -0.3899    0.1445    0.0085    0.0235   -0.0584    0.1056   -0.0239   -0.1634
  Pz  N    4   -0.2809   -0.5545   -0.0836   -0.1971   -0.0298   -0.5647   -0.0525   -0.0864
  S   C    5    0.1406   -0.0100   -0.0028   -0.0300   -0.1980    0.0106    0.0084   -0.0435
  Px  C    5   -0.1922   -0.0230   -0.1494    0.0960   -0.2591    0.1241    0.1692    0.4382
  Py  C    5   -0.0498    0.0269    0.1027   -0.0496    0.2607   -0.0873   -0.0558   -0.1027
  Pz  C    5    0.0312   -0.1623   -0.5090    0.5117    0.0460    0.4005    0.0174   -0.1747
  S   C    6    0.0206    0.0067   -0.0051   -0.0675   -0.2042    0.0003    0.2342   -0.1729
  Px  C    6   -0.1136   -0.0277    0.0128    0.0709    0.5360   -0.0198    0.3628    0.1346
  Py  C    6    0.0606    0.0147   -0.0113    0.0185    0.0314    0.0050   -0.1007   -0.0367
  Pz  C    6    0.0363   -0.1236    0.0360   -0.0910   -0.1063   -0.0099    0.4995   -0.2468
  S   H    7    0.0750   -0.0089    0.0006    0.0068    0.0470   -0.0023   -0.0457   -0.1529
  S   H    8    0.0688   -0.0016    0.0004   -0.0109   -0.0682    0.0004    0.0215    0.0427
  S   H    9    0.0270   -0.0042    0.0030    0.0092    0.0661   -0.0030   -0.0064    0.0457
  S   H   10   -0.0692    0.0803   -0.0273   -0.0461    0.0198   -0.0056    0.0214   -0.1340
  S   C   11   -0.0091   -0.0629    0.0260    0.0653   -0.0090    0.0094   -0.2310    0.0682
  Px  C   11    0.0529    0.1181   -0.0453   -0.0740    0.0128   -0.0108    0.3428   -0.0830
  Py  C   11   -0.0144   -0.0154    0.0201    0.0197   -0.0055   -0.0021   -0.0894    0.0199
  Pz  C   11    0.0011    0.1323   -0.0469   -0.1087    0.0281   -0.0183    0.4932   -0.1674
  S   H   12    0.0359    0.0705   -0.0286   -0.0458    0.0185   -0.0078    0.0490    0.0448
  S   H   13    0.0017    0.0096   -0.0081    0.0127    0.0241   -0.0004   -0.0620    0.0263
  S   H   14   -0.0247    0.0171    0.0012    0.0127    0.0250    0.0022   -0.0564    0.0557
  S   H   15    0.0400    0.0431   -0.0165   -0.0306   -0.0839    0.0008   -0.0665   -0.0302


   Root No.      25        26        27        28        29        30        31        32

                25 A      26 A      27 A      28 A      29 A      30 A      31 A      32 A   

                 3.978     4.536     4.810     5.013     5.223     5.228     5.302     5.628
  
  S   N    1   -0.0431    0.0408    0.0178    0.0040    0.0201   -0.0069    0.0005    0.0174
  Px  N    1    0.1879   -0.2727   -0.1466    0.1174   -0.0013    0.1971   -0.0236   -0.1261
  Py  N    1    0.4084   -0.0675    0.2637   -0.2114    0.0006    0.0114    0.0810   -0.2994
  Pz  N    1    0.0432    0.0363    0.0561   -0.0945    0.0087   -0.0577    0.0226   -0.0216
  S   C    2    0.1107   -0.0315   -0.1074   -0.1599   -0.0140    0.4379    0.0441   -0.3853
  Px  C    2    0.3723   -0.1521    0.1645    0.1005    0.0254   -0.2815   -0.0986   -0.2523
  Py  C    2    0.3130   -0.1090    0.1309   -0.1465   -0.0192    0.0284    0.1107    0.1202
  Pz  C    2   -0.0580    0.0359   -0.0104   -0.0431   -0.0127    0.0848    0.0418    0.0965
  S   C    3    0.1376   -0.2438    0.0669    0.2492    0.0223   -0.3378   -0.1068    0.0313
  Px  C    3    0.1534   -0.0710    0.1413    0.1152    0.0218   -0.3123   -0.0503    0.0238
  Py  C    3    0.0708   -0.2455   -0.0025   -0.0042   -0.0109    0.1799    0.1051    0.0954
  Pz  C    3   -0.0237   -0.0302   -0.0412   -0.0366   -0.0077    0.1182    0.0365    0.0089
  S   N    4    0.0079    0.1559    0.0548   -0.0871    0.0015    0.0478    0.0431    0.0674
  Px  N    4    0.1297    0.1530    0.1669   -0.1916   -0.0005    0.1726    0.1578    0.1967
  Py  N    4    0.1465   -0.2491    0.0705    0.0636   -0.0029   -0.0054    0.0709    0.1665
  Pz  N    4   -0.0074   -0.0919   -0.0404    0.0619    0.0001   -0.0484   -0.0328   -0.0207
  S   C    5   -0.1353   -0.2961   -0.3003    0.3142    0.0067    0.0955   -0.1145    0.0544
  Px  C    5    0.0170   -0.0064   -0.0039    0.0168   -0.0000    0.1953    0.1120    0.3533
  Py  C    5    0.2193   -0.0340    0.1653   -0.0702    0.0223    0.1602    0.1172    0.1984
  Pz  C    5    0.0306    0.0081    0.0525   -0.0111    0.0020   -0.0231   -0.0035   -0.0638
  S   C    6   -0.0621   -0.0157   -0.2385   -0.3603    0.2108   -0.2199    0.0319    0.0822
  Px  C    6    0.1219   -0.2097   -0.1584   -0.0143    0.1328    0.0776   -0.0009   -0.0618
  Py  C    6    0.3423    0.3029   -0.3206    0.0909    0.0330    0.0255   -0.2587    0.1414
  Pz  C    6   -0.0256    0.2063    0.1587    0.1959   -0.1759    0.0606   -0.0601    0.0245
  S   H    7    0.0515   -0.0214    0.1597   -0.0563   -0.0071   -0.2281    0.1038    0.4995
  S   H    8    0.0987    0.0245    0.0866   -0.1473   -0.0076    0.1446    0.1224    0.0483
  S   H    9   -0.1321    0.3306    0.0843   -0.2113   -0.0160   -0.2762   -0.0414   -0.2876
  S   H   10    0.2804    0.4181    0.0728    0.4020   -0.2296    0.1760   -0.2012    0.0462
  S   C   11    0.0114   -0.0035    0.0095    0.0243   -0.0604    0.0186   -0.0021   -0.0108
  Px  C   11   -0.0001   -0.0683   -0.1509   -0.1785   -0.4717   -0.1039   -0.0028    0.0273
  Py  C   11    0.0579    0.0927   -0.1784    0.1888   -0.0741   -0.1230    0.5317   -0.0913
  Pz  C   11   -0.0322    0.0644    0.0141    0.0754    0.3231    0.0043    0.1039   -0.0226
  S   H   12   -0.3565   -0.1589    0.5064    0.2232   -0.2234    0.1198    0.1538   -0.1234
  S   H   13    0.0897    0.0644   -0.2521    0.0946   -0.2395   -0.1520    0.4577   -0.0608
  S   H   14   -0.0448   -0.1662    0.0769   -0.2731   -0.2399    0.0450   -0.4494    0.0887
  S   H   15   -0.0349    0.0994    0.1720    0.1605    0.5903    0.0897   -0.0076   -0.0126


   Root No.      33        34        35        36

                33 A      34 A      35 A      36 A   

                 5.838     6.017     6.166     6.377
  
  S   N    1    0.0599   -0.0395   -0.0037    0.0173
  Px  N    1   -0.3043    0.2190    0.0255    0.0520
  Py  N    1    0.0878    0.1276   -0.0052   -0.0156
  Pz  N    1    0.0980   -0.0350    0.0213   -0.0154
  S   C    2    0.0101   -0.0123   -0.0084   -0.1097
  Px  C    2    0.1339   -0.0902   -0.0044   -0.0235
  Py  C    2   -0.1852    0.4606    0.0274    0.0372
  Pz  C    2   -0.0696    0.1064    0.0024    0.0126
  S   C    3    0.0041   -0.1162   -0.0059   -0.3928
  Px  C    3    0.0320   -0.2376    0.0024    0.4410
  Py  C    3   -0.2842   -0.3913   -0.0018    0.0609
  Pz  C    3   -0.0617   -0.0068    0.0004   -0.1080
  S   N    4    0.0815    0.0372   -0.0007   -0.0280
  Px  N    4    0.0028   -0.1457   -0.0051   -0.2520
  Py  N    4   -0.2878   -0.3443   -0.0008   -0.2543
  Pz  N    4   -0.0554   -0.0238    0.0029    0.0217
  S   C    5    0.1434    0.1523   -0.0003    0.1824
  Px  C    5   -0.0552   -0.1766   -0.0011   -0.1897
  Py  C    5    0.5060   -0.0306   -0.0212   -0.0044
  Pz  C    5    0.1131    0.0416   -0.0079    0.0498
  S   C    6    0.1495   -0.1027   -0.0177   -0.0292
  Px  C    6   -0.1510    0.1061   -0.0397    0.0311
  Py  C    6   -0.0533   -0.0407    0.0199    0.0095
  Pz  C    6    0.0080   -0.0189   -0.1044   -0.0006
  S   H    7   -0.2075    0.4010    0.0333    0.1042
  S   H    8   -0.1288   -0.2954    0.0055    0.6316
  S   H    9   -0.4878   -0.0365    0.0222   -0.0690
  S   H   10   -0.0716   -0.0008   -0.0119    0.0123
  S   C   11    0.0228   -0.0163    0.6227   -0.0069
  Px  C   11    0.0600   -0.0353    0.0905   -0.0097
  Py  C   11    0.0166    0.0103   -0.0422   -0.0035
  Pz  C   11    0.0021   -0.0009    0.2178   -0.0032
  S   H   12   -0.0086    0.0584   -0.0126    0.0090
  S   H   13    0.0112    0.0089   -0.4474    0.0001
  S   H   14   -0.0080   -0.0024   -0.4440    0.0075
  S   H   15   -0.0575    0.0322   -0.3739    0.0088

           SUPERDELOCALIZABILITIES

 Mulliken electronegativity:        4.252438
 Parr & Pople absolute hardness:    5.014756
 Schuurmann MO shift alpha:        -4.252438
 
 Ehomo:                            -9.267194
 Elumo:                             0.762319


  a   n        Dn(r)        De(r)   q(r) - Z(r)

  N   1    -0.395527    -0.434417    -5.130171
  C   2    -0.501784    -0.415085    -4.196915
  C   3    -0.477775    -0.411429    -4.101300
  N   4    -0.344070    -0.567571    -5.296354
  C   5    -0.528346    -0.378778    -4.022277
  C   6    -0.501687    -0.326188    -4.078965
  C  11    -0.389508    -0.392471    -4.493965

 Total:    -3.138696    -2.925939

  a   n        piS(r)

  N   1    -0.173697
  C   2    -0.213030
  C   3    -0.210663
  N   4    -0.193977
  C   5    -0.208226
  C   6    -0.185382
  C  11    -0.186366

 Total:    -1.371341

  a   n       homo-1         homo         lumo       lumo+1

  N   1    35.429455     6.916258    22.041712    27.078313
  C   2    11.266510    30.696400    31.648198    16.382669
  C   3     6.612185    31.580100    10.239952     0.989066
  N   4    37.350455     0.722761     4.037688     1.657610
  C   5     2.769330    29.198544    27.441183    17.643679
  C   6     1.631384     0.161463     1.821937    34.122240
  C  11     3.563502     0.533038     2.195205     0.106337


              NET ATOMIC CHARGES AND DIPOLE CONTRIBUTIONS

  ATOM NO.   TYPE          CHARGE      No. of ELECS.   s-Pop       p-Pop       
    1          N          -0.130171        5.1302     1.46480     3.66537
    2          C          -0.196914        4.1969     1.11163     3.08528
    3          C          -0.101300        4.1013     1.10980     2.99150
    4          N          -0.296354        5.2964     1.73174     3.56462
    5          C          -0.022276        4.0223     1.12119     2.90109
    6          C          -0.078964        4.0790     1.08731     2.99166
    7          H           0.175225        0.8248     0.82477
    8          H           0.175451        0.8245     0.82455
    9          H           0.181335        0.8187     0.81866
   10          H           0.146061        0.8539     0.85394
   11          C          -0.493965        4.4940     1.08809     3.40588
   12          H           0.144711        0.8553     0.85529
   13          H           0.167992        0.8320     0.83201
   14          H           0.167731        0.8323     0.83227
   15          H           0.161439        0.8386     0.83856
 DIPOLE           X         Y         Z       TOTAL
 POINT-CHG.     3.870    -0.518    -0.886     4.004
 HYBRID         0.890    -0.423    -0.242     1.015
 SUM            4.760    -0.941    -1.128     4.981


          ATOMIC ORBITAL ELECTRON POPULATIONS

     Atom    s        px        py        pz   
    1  N   1.46480   1.09501   1.10865   1.46171
    2  C   1.11163   0.97916   0.96216   1.14397
    3  C   1.10980   1.00913   0.93442   1.04794
    4  N   1.73174   1.21354   1.13258   1.21850
    5  C   1.12119   0.88243   0.98016   1.03850
    6  C   1.08731   0.81870   1.14698   1.02598
    7  H   0.82477
    8  H   0.82455
    9  H   0.81866
   10  H   0.85394
   11  C   1.08809   1.12673   1.19600   1.08315
   12  H   0.85529
   13  H   0.83201
   14  H   0.83227
   15  H   0.83856

          BONDING CONTRIBUTION OF EACH M.O.

  1.6089  1.6428  1.7606  1.8417  1.9023  1.8755  1.8504  1.9218  1.8953  1.7115
  1.9417  2.0298  1.9971  1.8819  1.9795  1.9500  0.9260  1.4420  1.7532 -2.3750
 -1.9992 -2.2509 -1.9972 -1.9011 -1.8917 -1.9508 -1.9617 -1.9915 -1.9620 -1.9984
 -1.9763 -1.9542 -1.9136 -1.9130 -1.9157 -1.9597





            (VALENCIES)   BOND ORDERS

     1  N     (3.520)     2  C 1.204     5  C 1.204     6  C 0.921     4  N 0.094     3  C 0.074
 
     2  C     (3.908)     3  C 1.546     1  N 1.204     7  H 0.953     5  C 0.131     4  N 0.034     6  C 0.015
 
     3  C     (3.947)     2  C 1.546     4  N 1.315     8  H 0.950     1  N 0.074     5  C 0.038     6  C 0.011
 
     4  N     (3.017)     5  C 1.543     3  C 1.315     1  N 0.094     2  C 0.034     6  C 0.019
 
     5  C     (3.911)     4  N 1.543     1  N 1.204     9  H 0.946     2  C 0.131     3  C 0.038     6  C 0.016
 
     6  C     (3.913)    11  C 0.999    12  H 0.964    10  H 0.964     1  N 0.921     4  N 0.019     5  C 0.016
                          2  C 0.015     3  C 0.011
 
     7  H     (0.969)     2  C 0.953
 
     8  H     (0.969)     3  C 0.950
 
     9  H     (0.967)     5  C 0.946
 
    10  H     (0.979)     6  C 0.964
 
    11  C     (3.915)     6  C 0.999    13  H 0.965    14  H 0.965    15  H 0.963
 
    12  H     (0.979)     6  C 0.964
 
    13  H     (0.972)    11  C 0.965
 
    14  H     (0.972)    11  C 0.965
 
    15  H     (0.974)    11  C 0.963
 




 SELF-Q:    SELF OR INACTIVE CHARGE
 ACTIV-Q:   CHARGE WHICH IS USED TO FORM BONDS
 TOTAL-Q:   SELF-Q + ACTIV-Q
 FREE-VA:   TOTAL-Q - VALENCE
 STAT.PROM: TOTAL-Q - CORE CHARGE
 MULL.PROM: -CHARGE (SEE ABOVE)

       SELF-Q    ACTIV-Q   TOTAL-Q   VALENCE   FREE-VA STAT.PROM MULL.PROM


   1   1.61009   3.52009   5.13017   3.52009   0.00000   0.13017   0.13017

   2   0.28849   3.90842   4.19691   3.90842   0.00000   0.19691   0.19691

   3   0.15421   3.94709   4.10130   3.94709   0.00000   0.10130   0.10130

   4   2.27971   3.01664   5.29635   3.01664   0.00000   0.29635   0.29635

   5   0.11145   3.91083   4.02228   3.91083   0.00000   0.02228   0.02228

   6   0.16641   3.91255   4.07896   3.91255   0.00000   0.07896   0.07896

   7  -0.14452   0.96930   0.82477   0.96930   0.00000  -0.17523  -0.17523

   8  -0.14467   0.96922   0.82455   0.96922   0.00000  -0.17545  -0.17545

   9  -0.14845   0.96712   0.81866   0.96712   0.00000  -0.18134  -0.18134

  10  -0.12473   0.97867   0.85394   0.97867   0.00000  -0.14606  -0.14606

  11   0.57849   3.91548   4.49396   3.91548   0.00000   0.49396   0.49396

  12  -0.12377   0.97906   0.85529   0.97906   0.00000  -0.14471  -0.14471

  13  -0.13977   0.97178   0.83201   0.97178   0.00000  -0.16799  -0.16799

  14  -0.13960   0.97187   0.83227   0.97187   0.00000  -0.16773  -0.16773

  15  -0.13538   0.97394   0.83856   0.97394  -0.00000  -0.16144  -0.16144

 CLOSED SHELL





          TOTAL ENERGY PARTITIONING

          ALL ENERGIES ARE IN ELECTRON VOLTS

            ONE-CENTER TERMS 
          E-E:  ELECTRON-ELECTRON REPULSION
          E-N:  ELECTRON-NUCLEAR ATTRACTION


   ATOM      E-E       E-N    (E-E + E-N)
   N   1   109.6469 -267.5197 -157.8728
   C   2    79.8925 -180.0126 -100.1202
   C   3    76.4733 -176.1736  -99.7004
   N   4   115.7201 -277.9177 -162.1975
   C   5    73.6401 -173.1445  -99.5044
   C   6    75.4889 -175.0307  -99.5418
   H   7     2.4572   -9.2762   -6.8190
   H   8     2.4558   -9.2737   -6.8178
   H   9     2.4209   -9.2075   -6.7866
   H  10     2.6340   -9.6042   -6.9702
   C  11    91.1475 -191.6137 -100.4662
   H  12     2.6424   -9.6194   -6.9770
   H  13     2.5005   -9.3576   -6.8571
   H  14     2.5020   -9.3605   -6.8584
   H  15     2.5400   -9.4313   -6.8912

              TWO-CENTER TERMS
           
          J:   RESONANCE ENERGY          E-E: ELECTRON-ELECTRON REPULSION
          K:   EXCHANGE ENERGY           E-N: ELECTRON-NUCLEAR ATTRACTION
                                         N-N: NUCLEAR-NUCLEAR REPULSION
          C:   COULOMBIC INTERACTION = E-E + E-N + N-N
          EE:  TOTAL OF ELECTRONIC AND NUCLEAR ENERGIES


     ATOM          J        K       E-E       E-N      N-N      C        EE
     PAIR
 
  C    2  N    1  -16.6697  -6.3950 166.4230 -327.1137 167.2523  6.5616 -16.5031
 
  C    3  N    1    0.3083  -0.2089 119.7354 -234.8125 115.6009  0.5238   0.6232
  C    3  C    2  -16.7065  -7.7756 136.2097 -267.2247 137.2687  6.2537 -18.2285
 
  N    4  N    1    0.3871  -0.2627 150.2029 -291.4199 141.8151  0.5981   0.7225
  N    4  C    2    0.2078  -0.0918 122.4050 -235.1603 113.3552  0.6000   0.7160
  N    4  C    3  -16.9041  -6.7976 167.1998 -328.4176 167.9472  6.7294 -16.9723
 
  C    5  N    1  -16.3905  -6.3159 159.8742 -320.3043 166.7692  6.3391 -16.3672
  C    5  C    2    0.5102  -0.3701  95.0703 -187.0354  92.4070  0.4419   0.5821
  C    5  C    3    0.1715  -0.1082  95.2569 -189.2167  94.5019  0.5421   0.6055
  C    5  N    4  -19.0441  -7.8926 166.8537 -331.2135 171.8723  7.5125 -19.4242
 
  C    6  N    1  -13.4605  -4.9883 157.9612 -313.7487 161.0408  5.2533 -13.1955
  C    6  C    2    0.2289  -0.0473  87.2960 -170.1021  83.0042  0.1981   0.3797
  C    6  C    3   -0.0206  -0.0249  62.3462 -122.5533  60.2267  0.0196  -0.0259
  C    6  N    4   -0.0174  -0.0388  79.2703 -153.9039  74.6878  0.0543  -0.0019
  C    6  C    5    0.2223  -0.0480  83.4447 -165.8899  82.5926  0.1473   0.3216

   ATOM          J        K       E-E       E-N      N-N      C        EE
   PAIR
  H    7  N    1    0.0694  -0.0045  24.9114  -54.5660  29.6704  0.0159   0.0807
  H    7  C    2  -12.1013  -5.4007  32.9623  -71.8187  43.9382  5.0817 -12.4202
  H    7  C    3    0.0650  -0.0040  19.6284  -43.0013  23.3760  0.0032   0.0641
  H    7  N    4   -0.0139  -0.0110  17.7058  -38.3981  20.5272 -0.1651  -0.1900
  H    7  C    5   -0.0245  -0.0198  13.7609  -30.4613  16.7040  0.0036  -0.0408
  H    7  C    6    0.0002  -0.0001  15.7816  -34.6738  18.8438 -0.0484  -0.0483

   ATOM          J        K       E-E       E-N      N-N      C        EE
   PAIR
  H    8  N    1   -0.0144  -0.0122  17.5599  -38.4431  20.7948 -0.0883  -0.1149
  H    8  C    2    0.0878  -0.0082  20.2314  -43.8223  23.4886 -0.1023  -0.0226
  H    8  C    3  -12.0085  -5.3772  32.1710  -70.7886  43.7852  5.1676 -12.2181
  H    8  N    4    0.0491  -0.0028  25.8951  -56.0000  29.9764 -0.1285  -0.0822
  H    8  C    5   -0.0273  -0.0205  14.0406  -31.0599  17.0177 -0.0016  -0.0494
  H    8  C    6    0.0005  -0.0015  10.0386  -22.0626  11.9919 -0.0320  -0.0331
  H    8  H    7   -0.0058  -0.0003   3.3324   -8.0819   4.9018  0.1524   0.1462

   ATOM          J        K       E-E       E-N      N-N      C        EE
   PAIR
  H    9  N    1    0.1147  -0.0109  24.6519  -54.1745  29.5171 -0.0055   0.0983
  H    9  C    2   -0.0235  -0.0182  14.2153  -31.0124  16.6717 -0.1254  -0.1671
  H    9  C    3   -0.0264  -0.0192  14.0937  -31.0383  16.8848 -0.0598  -0.1054
  H    9  N    4    0.0745  -0.0054  25.5679  -55.5537  29.8516 -0.1342  -0.0650
  H    9  C    5  -12.0298  -5.3485  31.3541  -69.8170  43.7271  5.2642 -12.1141
  H    9  C    6   -0.0045  -0.0003  15.5199  -34.2391  18.6688 -0.0504  -0.0551
  H    9  H    7    0.0002  -0.0001   2.2119   -5.3837   3.2759  0.1041   0.1042
  H    9  H    8    0.0001  -0.0000   2.2376   -5.4469   3.3148  0.1055   0.1056

   ATOM          J        K       E-E       E-N      N-N      C        EE
   PAIR
  H   10  N    1    0.0379  -0.0020  26.4803  -56.8520  30.4366  0.0649   0.1008
  H   10  C    2    0.0148  -0.0023  17.5337  -37.3083  19.6519 -0.1227  -0.1103
  H   10  C    3   -0.0002  -0.0006  12.0603  -25.9222  13.8172 -0.0447  -0.0455
  H   10  N    4    0.0003  -0.0010  14.3719  -30.5426  16.0578 -0.1129  -0.1136
  H   10  C    5   -0.0166  -0.0155  13.7972  -29.9419  16.1427 -0.0021  -0.0342
  H   10  C    6  -11.1497  -5.3335  32.5019  -70.3439  42.5376  4.6956 -11.7876
  H   10  H    7   -0.0073  -0.0004   3.5572   -8.4787   5.0536  0.1321   0.1244
  H   10  H    8    0.0000  -0.0000   2.0066   -4.7834   2.8498  0.0730   0.0730
  H   10  H    9    0.0001  -0.0000   2.5179   -6.0242   3.6017  0.0954   0.0955

   ATOM          J        K       E-E       E-N      N-N      C        EE
   PAIR
  C   11  N    1    0.1231  -0.0179 121.4206 -226.9496 106.0406  0.5117   0.6169
  C   11  C    2   -0.0007  -0.0119  76.4718 -141.3727  65.2617  0.3608   0.3483
  C   11  C    3   -0.0001  -0.0034  58.1670 -108.7367  50.7070  0.1373   0.1337
  C   11  N    4    0.0000  -0.0034  74.2371 -136.8827  63.0278  0.3822   0.3788
  C   11  C    5   -0.0000  -0.0140  73.1691 -138.1808  65.0406  0.0288   0.0148
  C   11  C    6  -11.7038  -5.1568 137.7574 -261.2971 127.9114  4.3716 -12.4890
  C   11  H    7   -0.0001  -0.0000  14.3950  -30.2828  15.5551 -0.3326  -0.3327
  C   11  H    8   -0.0000  -0.0000   9.7370  -20.4820  10.5187 -0.2264  -0.2264
  C   11  H    9    0.0000  -0.0000  14.1844  -29.9676  15.4414 -0.3418  -0.3418
  C   11  H   10    0.0507  -0.0018  22.7658  -47.0162  23.9620 -0.2884  -0.2396

   ATOM          J        K       E-E       E-N      N-N      C        EE
   PAIR
  H   12  N    1    0.0418  -0.0024  26.5701  -56.9769  30.4714  0.0646   0.1040
  H   12  C    2   -0.0177  -0.0162  14.4478  -30.7503  16.2028 -0.0997  -0.1336
  H   12  C    3    0.0002  -0.0006  11.3373  -24.3554  12.9779 -0.0402  -0.0406
  H   12  N    4   -0.0002  -0.0005  15.4737  -32.8400  17.2435 -0.1229  -0.1236
  H   12  C    5    0.0127  -0.0024  16.7832  -36.3407  19.5528 -0.0047   0.0056
  H   12  C    6  -11.1501  -5.3341  32.5504  -70.3905  42.5355  4.6955 -11.7888
  H   12  H    7   -0.0001  -0.0000   2.5588   -6.0941   3.6273  0.0920   0.0919
  H   12  H    8   -0.0000  -0.0001   1.8589   -4.4278   2.6358  0.0669   0.0668
  H   12  H    9   -0.0072  -0.0004   3.4991   -8.3652   4.9997  0.1335   0.1259
  H   12  H   10   -0.0300  -0.0005   5.1370  -12.0219   7.1147  0.2299   0.1995
  H   12  C   11    0.0523  -0.0019  22.7990  -47.0424  23.9586 -0.2848  -0.2344

   ATOM          J        K       E-E       E-N      N-N      C        EE
   PAIR
  H   13  N    1    0.0089  -0.0008  20.6911  -45.0440  24.2547 -0.0982  -0.0901
  H   13  C    2   -0.0042  -0.0004  14.9461  -32.2341  17.1519 -0.1361  -0.1407
  H   13  C    3    0.0001  -0.0000  11.1316  -24.2629  13.0812 -0.0501  -0.0500
  H   13  N    4    0.0000  -0.0000  13.3789  -28.8267  15.3201 -0.1277  -0.1277
  H   13  C    5   -0.0006  -0.0001  12.2615  -26.9687  14.7012 -0.0060  -0.0068
  H   13  C    6   -0.0018  -0.0010  20.1281  -43.9897  23.9159  0.0543   0.0516
  H   13  H    7   -0.0011  -0.0001   2.9778   -7.1894   4.3395  0.1279   0.1267
  H   13  H    8   -0.0000  -0.0000   1.8975   -4.5819   2.7659  0.0815   0.0815
  H   13  H    9    0.0000  -0.0000   2.2641   -5.4867   3.3239  0.1013   0.1013
  H   13  H   10    0.0068  -0.0002   3.7386   -8.8715   5.2674  0.1344   0.1410
  H   13  C   11  -11.2511  -5.3637  34.9481  -73.7132  43.0591  4.2940 -12.3208
  H   13  H   12   -0.0165  -0.0088   3.1392   -7.4434   4.4117  0.1074   0.0822

   ATOM          J        K       E-E       E-N      N-N      C        EE
   PAIR
  H   14  N    1    0.0090  -0.0009  20.7510  -45.1572  24.3062 -0.0999  -0.0918
  H   14  C    2   -0.0007  -0.0001  12.8368  -27.7129  14.7657 -0.1104  -0.1112
  H   14  C    3    0.0000  -0.0000  10.5402  -22.9776  12.3917 -0.0457  -0.0457
  H   14  N    4    0.0001  -0.0000  14.3009  -30.7923  16.3518 -0.1395  -0.1395
  H   14  C    5   -0.0041  -0.0004  14.3250  -31.4603  17.1201 -0.0152  -0.0196
  H   14  C    6   -0.0007  -0.0010  20.1268  -43.9797  23.9070  0.0541   0.0524
  H   14  H    7   -0.0000  -0.0000   2.2984   -5.5482   3.3483  0.0984   0.0984
  H   14  H    8   -0.0000  -0.0000   1.7672   -4.2666   2.5752  0.0758   0.0758
  H   14  H    9   -0.0009  -0.0000   2.9364   -7.1151   4.3098  0.1312   0.1302
  H   14  H   10   -0.0165  -0.0088   3.1348   -7.4377   4.4111  0.1083   0.0830
  H   14  C   11  -11.2527  -5.3642  34.9596  -73.7246  43.0607  4.2957 -12.3212
  H   14  H   12    0.0065  -0.0002   3.7375   -8.8606   5.2557  0.1326   0.1389
  H   14  H   13   -0.0883  -0.0037   4.9255  -11.8383   7.2009  0.2882   0.1962

   ATOM          J        K       E-E       E-N      N-N      C        EE
   PAIR
  H   15  N    1   -0.0118  -0.0121  17.2051  -37.2909  20.0023 -0.0835  -0.1074
  H   15  C    2    0.0004  -0.0009  11.3433  -24.3696  12.9299 -0.0964  -0.0970
  H   15  C    3   -0.0000  -0.0002   8.8870  -19.2880  10.3631 -0.0379  -0.0381
  H   15  N    4   -0.0000  -0.0004  11.3801  -24.3963  12.9094 -0.1068  -0.1072
  H   15  C    5    0.0003  -0.0010  10.8638  -23.7735  12.9009 -0.0088  -0.0094
  H   15  C    6   -0.0178  -0.0043  20.4106  -44.3660  24.0076  0.0522   0.0301
  H   15  H    7   -0.0000  -0.0000   2.2109   -5.3173   3.1967  0.0904   0.0904
  H   15  H    8    0.0000  -0.0000   1.5316   -3.6840   2.2151  0.0627   0.0627
  H   15  H    9   -0.0000  -0.0000   2.1832   -5.2702   3.1802  0.0931   0.0930
  H   15  H   10    0.0016  -0.0000   3.7971   -8.9746   5.3085  0.1310   0.1326
  H   15  C   11  -11.2887  -5.3625  35.2377  -74.0077  43.1155  4.3455 -12.3057
  H   15  H   12    0.0018  -0.0000   3.8086   -8.9948   5.3163  0.1301   0.1320
  H   15  H   13   -0.0794  -0.0031   4.9443  -11.8389   7.1723  0.2777   0.1952
  H   15  H   14   -0.0798  -0.0031   4.9465  -11.8422   7.1732  0.2775   0.1947
 

                    Total contribution from hydrogen bonds:         0.000 disp.:    0.000 Tot:     0.000 kcal/mol




***  SUMMARY OF ENERGY PARTITION  ***
 ---------------------------------------
     ONE-CENTER TERMS

 ELECTRON-NUCLEAR  (ONE-ELECTRON)        -1516.5429 EV
 ELECTRON-ELECTRON (TWO-ELECTRON)          642.1621 EV

 TOTAL OF ONE-CENTER TERMS                -874.3807 EV
 ---------------------------------------
     TWO-CENTER TERMS

 RESONANCE ENERGY                         -200.8268 EV
 EXCHANGE ENERGY                           -89.6969 EV

 EXCHANGE + RESONANCE ENERGY:             -290.5236 EV

 ELECTRON-ELECTRON REPULSION              3534.4614 EV
 ELECTRON-NUCLEAR ATTRACTION             -7141.8275 EV
 NUCLEAR-NUCLEAR REPULSION                3692.5925 EV

 TOTAL ELECTROSTATIC INTERACTION            85.2265 EV

 GRAND TOTAL OF TWO-CENTER TERMS          -205.2971 EV
 ---------------------------------------
 ETOT (EONE + ETWO)                      -1079.6779 EV


 ******************** TDHF POLARIZABILITIES ********************



          MOLECULAR WEIGHT =   96.13



          ROTATIONAL CONSTANTS IN CM(-1)

          A =    0.21853489   B =    0.06386196   C =    0.05588456



           PRINCIPAL MOMENTS OF INERTIA IN UNITS OF 10**(-40)*GRAM-CM**2

          A =      128.0928   B =      438.3322   C =      500.9031


 ROTATION MATRIX FOR ORIENTATION OF MOLECULE:

         0.999774   -0.009628    0.018967
         0.013057    0.981718   -0.189894
        -0.016792    0.190099    0.981621


          CARTESIAN COORDINATES 

    NO.       ATOM         X         Y         Z

     1         N        0.2248   -0.0113   -0.3213
     2         C       -0.5624   -1.1516   -0.1022
     3         C       -1.8401   -0.6824    0.2143
     4         N       -1.8544    0.7127    0.2102
     5         C       -0.5994    1.1096   -0.1034
     6         C        1.6708   -0.0012   -0.6094
     7         H       -0.1907   -2.1520   -0.1884
     8         H       -2.7275   -1.2480    0.4360
     9         H       -0.2618    2.1286   -0.1939
    10         H        1.9257   -0.8949   -1.2257
    11         C        2.4941    0.0109    0.6760
    12         H        1.9077    0.8933   -1.2317
    13         H        2.2956   -0.8738    1.2958
    14         H        2.2694    0.8881    1.2976
    15         H        3.5684    0.0274    0.4571


 ENERGY OF "REORIENTED" SYSTEM WITHOUT FIELD:       25.7177703706


  NFREQ=  3  IWFLB=  0  IBET=  1  IGAM=  1
  ATOL= 0.10000D-02  BTOL= 0.10000D-02    MAXITU=  500    MAXITA=  150


 *****************************************************************
 CALCULATION OF STATIC FIELD QUANTITIES
 *****************************************************************

 +++++ ALPHA AT       0.00000 EV.

                           COMPONENTS OF ALPHA

                     *X           *Y           *Z
           *=X:      89.1682       0.0289      -8.8500
           *=Y:       0.0295      80.1223      -0.2047
           *=Z:      -8.8497      -0.2051      54.9796

  ISOTROPIC AVERAGE ALPHA =      74.75670 A.U. =     11.07780 ANG.**3

 +++++ BETA (SECOND HARMONIC GENERATION) AT       0.00000 EV.

                              COMPONENTS OF BETA
            *XX         *XY         *YY         *XZ         *YZ         *ZZ
   *=X   -97.28897    56.75392   -35.97042    15.82244   -11.52708   -22.74526
   *=Y    56.73630   -36.02153   -47.33240   -11.52296    11.28166     7.32620
   *=Z    15.82017   -11.51696    11.27631   -22.74807     7.32300    17.56066


 AVERAGE BETAX(SHG) VALUE AT   0.00000 EV =        -93.6244 a.u. = -0.808860E-30 ESU
 AVERAGE BETAY(SHG) VALUE AT   0.00000 EV =         10.0438 a.u. =  0.867728E-31 ESU
 AVERAGE BETAZ(SHG) VALUE AT   0.00000 EV =         26.7973 a.u. =  0.231513E-30 ESU



 AVERAGE BETA (SHG) VALUE AT   0.00000 EV =         97.9004 a.u. =  0.845803E-30 ESU
   (1 a.u. = 8.639418X10-33 esu)



 +++++ ALPHA AT       0.00000 EV.

                           COMPONENTS OF ALPHA

                     *X           *Y           *Z
           *=X:      89.1683       0.0289      -8.8500
           *=Y:       0.0294      80.1223      -0.2047
           *=Z:      -8.8498      -0.2051      54.9796

  ISOTROPIC AVERAGE ALPHA =      74.75674 A.U. =     11.07781 ANG.**3


 GAMMA (THIRD HARMONIC GENERATION) AT    0.00000 EV.


 GAMMA(X,X,X,X) =         10344.10377
 GAMMA(Y,Y,Y,Y) =          4740.90761
 GAMMA(Z,Z,Z,Z) =           361.36689
 GAMMA(X,X,Y,Y) =          -472.46760
 GAMMA(X,X,Z,Z) =           941.55265
 GAMMA(Y,Y,X,X) =          -472.38601
 GAMMA(Y,Y,Z,Z) =           451.85795
 GAMMA(Z,Z,X,X) =           941.59720
 GAMMA(Z,Z,Y,Y) =           451.81879


 AVERAGE GAMMA VALUE AT    0.00000 =          3457.67025 a.u. =         1741.52567 ESU (X10-39)




 **********************************************************************
 CALCULATION FOR A FREQUENCY OF    0.25000 EV  =       0.00919 A.U. 
                  WAVELENGTH OF    4959.37 NM  =    2016.38525 CM(-1)
 **********************************************************************

 +++++ ALPHA AT       0.25000 EV.

                           COMPONENTS OF ALPHA

                     *X           *Y           *Z
           *=X:      89.2323       0.0194      -8.8609
           *=Y:       0.0199      80.1718      -0.2026
           *=Z:      -8.8602      -0.2033      54.9952

  ISOTROPIC AVERAGE ALPHA =      74.79976 A.U. =     11.08418 ANG.**3

 +++++ BETA (SECOND HARMONIC GENERATION) AT       0.25000 EV.

                              COMPONENTS OF BETA
            *XX         *XY         *YY         *XZ         *YZ         *ZZ
   *=X   -97.86832    57.67750   -36.09357    15.91633   -11.74581   -22.84475
   *=Y    57.54546   -36.93504   -48.36013   -11.72436    11.53453     7.34620
   *=Z    15.74520   -11.71492    11.34466   -22.96788     7.39394    17.67158


 AVERAGE BETAX(SHG) VALUE AT   0.25000 EV =        -94.4698 a.u. = -0.816164E-30 ESU
 AVERAGE BETAY(SHG) VALUE AT   0.25000 EV =          9.9908 a.u. =  0.863149E-31 ESU
 AVERAGE BETAZ(SHG) VALUE AT   0.25000 EV =         27.0013 a.u. =  0.233275E-30 ESU



 AVERAGE BETA (SHG) VALUE AT   0.25000 EV =         98.7595 a.u. =  0.853224E-30 ESU
   (1 a.u. = 8.639418X10-33 esu)



 +++++ ALPHA AT       0.75000 EV.

                           COMPONENTS OF ALPHA

                     *X           *Y           *Z
           *=X:      89.7537      -0.0585      -8.9479
           *=Y:      -0.0586      80.5751      -0.1871
           *=Z:      -8.9472      -0.1885      55.1211

  ISOTROPIC AVERAGE ALPHA =      75.14997 A.U. =     11.13608 ANG.**3


 GAMMA (THIRD HARMONIC GENERATION) AT    0.25000 EV.


 GAMMA(X,X,X,X) =         10542.55664
 GAMMA(Y,Y,Y,Y) =          4918.31523
 GAMMA(Z,Z,Z,Z) =           368.04891
 GAMMA(X,X,Y,Y) =          -491.58232
 GAMMA(X,X,Z,Z) =           965.16368
 GAMMA(Y,Y,X,X) =          -497.27151
 GAMMA(Y,Y,Z,Z) =           465.16196
 GAMMA(Z,Z,X,X) =           957.01726
 GAMMA(Z,Z,Y,Y) =           456.58335


 AVERAGE GAMMA VALUE AT    0.25000 =          3536.79864 a.u. =         1781.38028 ESU (X10-39)




 **********************************************************************
 CALCULATION FOR A FREQUENCY OF    0.50000 EV  =       0.01837 A.U. 
                  WAVELENGTH OF    2479.68 NM  =    4032.77050 CM(-1)
 **********************************************************************

 +++++ ALPHA AT       0.50000 EV.

                           COMPONENTS OF ALPHA

                     *X           *Y           *Z
           *=X:      89.4259      -0.0090      -8.8932
           *=Y:      -0.0087      80.3214      -0.1969
           *=Z:      -8.8924      -0.1979      55.0423

  ISOTROPIC AVERAGE ALPHA =      74.92987 A.U. =     11.10346 ANG.**3

 +++++ BETA (SECOND HARMONIC GENERATION) AT       0.50000 EV.

                              COMPONENTS OF BETA
            *XX         *XY         *YY         *XZ         *YZ         *ZZ
   *=X   -99.69788    60.60525   -36.39882    16.22020   -12.42898   -23.14978
   *=Y    60.07117   -39.84988   -51.61060   -12.33710    12.33196     7.39332
   *=Z    15.50567   -12.33482    11.54405   -23.65295     7.61483    18.01796


 AVERAGE BETAX(SHG) VALUE AT   0.50000 EV =        -97.1296 a.u. = -0.839143E-30 ESU
 AVERAGE BETAY(SHG) VALUE AT   0.50000 EV =          9.8146 a.u. =  0.847922E-31 ESU
 AVERAGE BETAZ(SHG) VALUE AT   0.50000 EV =         27.6416 a.u. =  0.238807E-30 ESU



 AVERAGE BETA (SHG) VALUE AT   0.50000 EV =        101.4620 a.u. =  0.876573E-30 ESU
   (1 a.u. = 8.639418X10-33 esu)



 +++++ ALPHA AT       1.50000 EV.

                           COMPONENTS OF ALPHA

                     *X           *Y           *Z
           *=X:      91.6371      -0.3804      -9.2665
           *=Y:      -0.3806      82.0568      -0.1244
           *=Z:      -9.2651      -0.1264      55.5626

  ISOTROPIC AVERAGE ALPHA =      76.41882 A.U. =     11.32410 ANG.**3


 GAMMA (THIRD HARMONIC GENERATION) AT    0.50000 EV.


 GAMMA(X,X,X,X) =         11182.22058
 GAMMA(Y,Y,Y,Y) =          5521.08806
 GAMMA(Z,Z,Z,Z) =           389.57164
 GAMMA(X,X,Y,Y) =          -558.04487
 GAMMA(X,X,Z,Z) =          1043.39009
 GAMMA(Y,Y,X,X) =          -588.22060
 GAMMA(Y,Y,Z,Z) =           510.78591
 GAMMA(Z,Z,X,X) =          1006.11227
 GAMMA(Z,Z,Y,Y) =           470.56490


 AVERAGE GAMMA VALUE AT    0.50000 =          3795.49360 a.u. =         1911.67724 ESU (X10-39)


 ******************** FINITE-FIELD POLARIZABILITIES ********************

    THE F-F METHOD IS PERFORMED USING BOTH AN ENERGY
    AND DIPOLE MOMENT EXPANSION.  THESE RESULTS ARE
    LISTED BELOW AS "H.o.F." AND "Dipole", RESPECTIVELY.

          MOLECULAR WEIGHT =   96.13



          ROTATIONAL CONSTANTS IN CM(-1)

          A =    0.21853489   B =    0.06386196   C =    0.05588456



           PRINCIPAL MOMENTS OF INERTIA IN UNITS OF 10**(-40)*GRAM-CM**2

          A =      128.0928   B =      438.3322   C =      500.9031


 ROTATION MATRIX FOR ORIENTATION OF MOLECULE:

         0.999774   -0.009628    0.018967
         0.013057    0.981718   -0.189894
        -0.016792    0.190099    0.981621


          CARTESIAN COORDINATES 

    NO.       ATOM         X         Y         Z

     1         N        0.2248   -0.0113   -0.3213
     2         C       -0.5624   -1.1516   -0.1022
     3         C       -1.8401   -0.6824    0.2143
     4         N       -1.8544    0.7127    0.2102
     5         C       -0.5994    1.1096   -0.1034
     6         C        1.6708   -0.0012   -0.6094
     7         H       -0.1907   -2.1520   -0.1884
     8         H       -2.7275   -1.2480    0.4360
     9         H       -0.2618    2.1286   -0.1939
    10         H        1.9257   -0.8949   -1.2257
    11         C        2.4941    0.0109    0.6760
    12         H        1.9077    0.8933   -1.2317
    13         H        2.2956   -0.8738    1.2958
    14         H        2.2694    0.8881    1.2976
    15         H        3.5684    0.0274    0.4571


 ENERGY OF "REORIENTED" SYSTEM WITHOUT FIELD:       25.71777 Kcal/mol


 APPLIED ELECTRIC FIELD MAGNITUDE:         0.10284 VOLTS PER ANGSTROM
    Step  1 of 36 done (+X)
    Step  2 of 36 done (-X)
    Step  3 of 36 done (+2X)
    Step  4 of 36 done (-2X)
    Step  5 of 36 done (+Y)
    Step  6 of 36 done (-Y)
    Step  7 of 36 done (+2Y)
    Step  8 of 36 done (-2Y)
    Step  9 of 36 done (+Y+X)
    Step 10 of 36 done (+Y-X)
    Step 11 of 36 done (-Y-X)
    Step 12 of 36 done (-Y+X)
    Step 13 of 36 done (+2Y+2X)
    Step 14 of 36 done (+2Y-2X)
    Step 15 of 36 done (-2Y-2X)
    Step 16 of 36 done (-2Y+2X)
    Step 17 of 36 done (+Z)
    Step 18 of 36 done (-Z)
    Step 19 of 36 done (+2Z)
    Step 20 of 36 done (-2Z)
    Step 21 of 36 done (+Z+X)
    Step 22 of 36 done (+Z-X)
    Step 23 of 36 done (-Z-X)
    Step 24 of 36 done (-Z+X)
    Step 25 of 36 done (+2Z+2X)
    Step 26 of 36 done (+2Z-2X)
    Step 27 of 36 done (-2Z-2X)
    Step 28 of 36 done (-2Z+2X)
    Step 29 of 36 done (+Z+Y)
    Step 30 of 36 done (+Z-Y)
    Step 31 of 36 done (-Z-Y)
    Step 32 of 36 done (-Z+Y)
    Step 33 of 36 done (+2Z+2Y)
    Step 34 of 36 done (+2Z-2Y)
    Step 35 of 36 done (-2Z-2Y)
    Step 36 of 36 done (-2Z+2Y)


 ****************************** DIPOLE ******************************


                     H.o.F.         Dipole

     X             -1.874802      -1.874740
     Y              0.465904       0.465897
     X              0.329858       0.329843


 MAGNITUDE:         1.959784       1.959721  (A.U.)
                    4.981275       4.981113  (DEBYE)


 ****************************** POLARIZABILITY ********************



 Polarizability Tensor from Heat of Formation:


                     1          2          3
 ------------------------------------------
          1  89.169653
          2   0.028012  80.123111
          3  -8.849985  -0.204920  54.981020




    ROOT NO.    1           2           3

            52.82462    80.12396    91.32521
  
         1   0.23658    -0.00823    -0.97158
         2   0.00705     0.99995    -0.00676
         3   0.97159    -0.00525     0.23662

 Polarizability Tensor from Dipole Moment:


                     1          2          3
 ------------------------------------------
          1  89.170326
          2   0.027996  80.122924
          3  -8.851185  -0.205915  54.981151




    ROOT NO.    1           2           3

            52.82421    80.12378    91.32641
  
         1   0.23660    -0.00826    -0.97157
         2   0.00709     0.99995    -0.00678
         3   0.97158    -0.00528     0.23665


 Average Polarizability from:     H.o.F         Dipole
                               74.757928      74.758134  A.U.
                               11.077630      11.077660  ANG.**3
                            2.215466D-23   2.215472D-23  ESU
 *******************************************************************************
 **                                                                           **
 **                              MOPAC v22.1.1                                **
 **                                                                           **
 *******************************************************************************
 **          Digital Object Identifier (DOI): 10.5281/zenodo.6511958          **
 **    Visit the DOI location for information on how to cite this program.    **
 *******************************************************************************

                              PM6 CALCULATION RESULTS

 *******************************************************************************
 *  CALCULATION DONE:                                Mon Apr 22 11:30:44 2024  *
 *  PM6        - The PM6 Hamiltonian to be used
 *  OLDGEO     - PREVIOUS GEOMETRY TO BE USED
 *  FORCE      - FORCE CALCULATION SPECIFIED
 *  T=         - A TIME OF 172800.0 SECONDS REQUESTED
 *  DUMP=N     - RESTART FILE WRITTEN EVERY 7200.0 SECONDS REQUESTED
 *  THERMO     - THERMODYNAMIC QUANTITIES TO BE CALCULATED
 *******************************************************************************
PM6 OLDGEO FORCE THERMO
 emi
 All coordinates are Cartesian
   ATOM   CHEMICAL          X               Y               Z
  NUMBER   SYMBOL      (ANGSTROMS)     (ANGSTROMS)     (ANGSTROMS)
 
     1       N         -0.32992417  *   0.07169453  *  -0.36207511  *
     2       C         -1.11708976  *  -1.06864043  *  -0.14292530  *
     3       C         -2.39475518  *  -0.59942079  *   0.17355219  *
     4       N         -2.40904021  *   0.79569338  *   0.16949714  *
     5       C         -1.15405225  *   1.19259902  *  -0.14412335  *
     6       C          1.11610517  *   0.08175548  *  -0.65014391  *
     7       H         -0.74536501  *  -2.06901766  *  -0.22915408  *
     8       H         -3.28213698  *  -1.16505972  *   0.39526648  *
     9       H         -0.81648026  *   2.21156984  *  -0.23463602  *
    10       H          1.37096702  *  -0.81193820  *  -1.26644656  *
    11       C          1.93938751  *   0.09390480  *   0.63528720  *
    12       H          1.35305788  *   0.97630723  *  -1.27243677  *
    13       H          1.74091012  *  -0.79083018  *   1.25506513  *
    14       H          1.71471309  *   0.97102530  *   1.25685463  *
    15       H          3.01370304  *   0.11035738  *   0.41641832  *
 


          CARTESIAN COORDINATES 

    NO.       ATOM           X           Y           Z

     1         N         -0.3299      0.0717     -0.3621
     2         C         -1.1171     -1.0686     -0.1429
     3         C         -2.3948     -0.5994      0.1736
     4         N         -2.4090      0.7957      0.1695
     5         C         -1.1541      1.1926     -0.1441
     6         C          1.1161      0.0818     -0.6501
     7         H         -0.7454     -2.0690     -0.2292
     8         H         -3.2821     -1.1651      0.3953
     9         H         -0.8165      2.2116     -0.2346
    10         H          1.3710     -0.8119     -1.2664
    11         C          1.9394      0.0939      0.6353
    12         H          1.3531      0.9763     -1.2724
    13         H          1.7409     -0.7908      1.2551
    14         H          1.7147      0.9710      1.2569
    15         H          3.0137      0.1104      0.4164

 General Reference for PM6:
 "Optimization of Parameters for Semiempirical Methods V: Modification of NDDO Approximations
 and Application to 70 Elements", J. J. P. Stewart, J. Mol. Mod., 13, 1173-1213 (2007)
 URL: https://link.springer.com/article/10.1007/s00894-007-0233-4

           Empirical Formula: C5 H8 N2  =    15 atoms



      MOLECULAR POINT GROUP   :   C1  


      RHF CALCULATION, NO. OF DOUBLY OCCUPIED LEVELS = 19



          HEAT OF FORMATION =      25.717770 KCALS/MOLE


          CARTESIAN COORDINATE DERIVATIVES

   NUMBER  ATOM         X            Y            Z

     1       N      0.006387     0.001654     0.004520
     2       C     -0.000529     0.002422     0.001853
     3       C      0.003921     0.010691    -0.003061
     4       N      0.003882     0.005483    -0.010991
     5       C     -0.003637    -0.001048     0.000001
     6       C      0.004898    -0.000607     0.001789
     7       H      0.002371    -0.007002     0.009280
     8       H     -0.009619    -0.001265     0.003211
     9       H     -0.008560     0.006881     0.014310
    10       H      0.001623    -0.000753    -0.011111
    11       C      0.000741    -0.005810    -0.005524
    12       H      0.007381    -0.005146     0.000309
    13       H     -0.004264    -0.018346     0.000531
    14       H      0.012517     0.009955    -0.009115
    15       H     -0.017111     0.002889     0.003996
 


          GRADIENT NORM =   0.04769

          MOLECULAR WEIGHT =   96.13



          ROTATIONAL CONSTANTS IN CM(-1)

          A =    0.21853489   B =    0.06386196   C =    0.05588456



           PRINCIPAL MOMENTS OF INERTIA IN UNITS OF 10**(-40)*GRAM-CM**2

          A =      128.0928   B =      438.3322   C =      500.9031


          ORIENTATION OF MOLECULE IN FORCE CALCULATION

    NO.       ATOM         X         Y         Z

     1          N      -0.1671   -0.2455    0.2563
     2          C       1.2357   -0.2455    0.2563
     3          C       1.6207    1.0978    0.2563
     4          N       0.4940    1.9206    0.2409
     5          C      -0.5818    1.1000    0.2295
     6          C      -1.0317   -1.4375    0.1795
     7          H       1.8268   -1.1382    0.2648
     8          H       2.6130    1.5121    0.2691
     9          H      -1.6137    1.4092    0.2175
    10          H      -0.5445   -2.2768    0.7287
    11          C      -1.3027   -1.8357   -1.2690
    12          H      -1.9890   -1.2226    0.7096
    13          H      -0.3754   -2.0757   -1.8063
    14          H      -1.7926   -1.0289   -1.8305
    15          H      -1.9531   -2.7170   -1.3215


    FIRST DERIVATIVES WILL BE USED IN THE CALCULATION OF SECOND DERIVATIVES

          ESTIMATED TIME TO COMPLETE CALCULATION =        0.70 SECONDS

    FOR POINT-GROUP C1   THERE ARE   1 UNIQUE SYMMETRY FUNCTIONS.

 STEP:   1 TIME =     0.01 SECS, INTEGRAL =      0.01 TIME LEFT: 172799.98
 STEP:   2 TIME =     0.01 SECS, INTEGRAL =      0.02 TIME LEFT: 172799.97
 STEP:   3 TIME =     0.01 SECS, INTEGRAL =      0.03 TIME LEFT: 172799.96
 STEP:   4 TIME =     0.01 SECS, INTEGRAL =      0.04 TIME LEFT: 172799.95
 STEP:   5 TIME =     0.01 SECS, INTEGRAL =      0.05 TIME LEFT: 172799.94
 STEP:   6 TIME =     0.01 SECS, INTEGRAL =      0.06 TIME LEFT: 172799.93
 STEP:   7 TIME =     0.01 SECS, INTEGRAL =      0.07 TIME LEFT: 172799.92
 STEP:   8 TIME =     0.01 SECS, INTEGRAL =      0.08 TIME LEFT: 172799.91
 STEP:   9 TIME =     0.01 SECS, INTEGRAL =      0.09 TIME LEFT: 172799.90
 STEP:  10 TIME =     0.01 SECS, INTEGRAL =      0.11 TIME LEFT: 172799.89
 STEP:  11 TIME =     0.01 SECS, INTEGRAL =      0.11 TIME LEFT: 172799.88
 STEP:  12 TIME =     0.01 SECS, INTEGRAL =      0.12 TIME LEFT: 172799.87
 STEP:  13 TIME =     0.01 SECS, INTEGRAL =      0.14 TIME LEFT: 172799.86
 STEP:  14 TIME =     0.01 SECS, INTEGRAL =      0.14 TIME LEFT: 172799.85
 STEP:  15 TIME =     0.01 SECS, INTEGRAL =      0.16 TIME LEFT: 172799.84
 STEP:  16 TIME =     0.01 SECS, INTEGRAL =      0.17 TIME LEFT: 172799.82
 STEP:  17 TIME =     0.01 SECS, INTEGRAL =      0.18 TIME LEFT: 172799.81
 STEP:  18 TIME =     0.01 SECS, INTEGRAL =      0.19 TIME LEFT: 172799.80
 STEP:  19 TIME =     0.01 SECS, INTEGRAL =      0.20 TIME LEFT: 172799.79
 STEP:  20 TIME =     0.01 SECS, INTEGRAL =      0.21 TIME LEFT: 172799.78
 STEP:  21 TIME =     0.01 SECS, INTEGRAL =      0.22 TIME LEFT: 172799.77
 STEP:  22 TIME =     0.01 SECS, INTEGRAL =      0.23 TIME LEFT: 172799.77
 STEP:  23 TIME =     0.01 SECS, INTEGRAL =      0.24 TIME LEFT: 172799.75
 STEP:  24 TIME =     0.01 SECS, INTEGRAL =      0.25 TIME LEFT: 172799.74
 STEP:  25 TIME =     0.01 SECS, INTEGRAL =      0.26 TIME LEFT: 172799.73
 STEP:  26 TIME =     0.01 SECS, INTEGRAL =      0.27 TIME LEFT: 172799.72
 STEP:  27 TIME =     0.01 SECS, INTEGRAL =      0.28 TIME LEFT: 172799.71
 STEP:  28 TIME =     0.01 SECS, INTEGRAL =      0.29 TIME LEFT: 172799.70
 STEP:  29 TIME =     0.01 SECS, INTEGRAL =      0.30 TIME LEFT: 172799.69
 STEP:  30 TIME =     0.01 SECS, INTEGRAL =      0.32 TIME LEFT: 172799.68
 STEP:  31 TIME =     0.01 SECS, INTEGRAL =      0.32 TIME LEFT: 172799.67
 STEP:  32 TIME =     0.01 SECS, INTEGRAL =      0.34 TIME LEFT: 172799.66
 STEP:  33 TIME =     0.01 SECS, INTEGRAL =      0.35 TIME LEFT: 172799.64
 STEP:  34 TIME =     0.01 SECS, INTEGRAL =      0.36 TIME LEFT: 172799.63
 STEP:  35 TIME =     0.01 SECS, INTEGRAL =      0.37 TIME LEFT: 172799.62
 STEP:  36 TIME =     0.01 SECS, INTEGRAL =      0.38 TIME LEFT: 172799.61
 STEP:  37 TIME =     0.02 SECS, INTEGRAL =      0.40 TIME LEFT: 172799.59
 STEP:  38 TIME =     0.01 SECS, INTEGRAL =      0.41 TIME LEFT: 172799.59
 STEP:  39 TIME =     0.02 SECS, INTEGRAL =      0.42 TIME LEFT: 172799.57
 STEP:  40 TIME =     0.01 SECS, INTEGRAL =      0.43 TIME LEFT: 172799.56
 STEP:  41 TIME =     0.02 SECS, INTEGRAL =      0.45 TIME LEFT: 172799.54
 STEP:  42 TIME =     0.01 SECS, INTEGRAL =      0.46 TIME LEFT: 172799.54
 STEP:  43 TIME =     0.01 SECS, INTEGRAL =      0.47 TIME LEFT: 172799.52
 STEP:  44 TIME =     0.01 SECS, INTEGRAL =      0.48 TIME LEFT: 172799.51
 STEP:  45 TIME =     0.01 SECS, INTEGRAL =      0.49 TIME LEFT: 172799.50

(To convert to Hartree/Bohr^2, multiply by (10^(-21) x N x a0^2)/(4.184 x 627.51) =  0.0642)


           FORCE MATRIX IN MILLIDYNES/ANGSTROM


                  N  1       C  2       C  3       N  4       C  5       C  6
 ------------------------------------------------------------------------------
     N    1  16.362747
     C    2   5.136962  14.533183
     C    3   1.888044   5.968700  14.295231
     N    4   2.303451   2.075469   5.281405  12.482195
     C    5   4.712655   1.376313   2.064058   6.440924  14.294276
     C    6   4.216784   0.545276   0.088748   0.153948   0.496385  12.155281
     H    7   0.736145   3.585057   0.563861   0.095170   0.095058   0.025211
     H    8   0.078452   0.599332   3.557842   0.713090   0.125430   0.022551
     H    9   0.702855   0.098558   0.126422   0.713148   3.479375   0.030741
     H   10   0.767550   0.050549   0.014139   0.034346   0.054530   3.277502
     C   11   0.844768   0.059800   0.037442   0.053696   0.072024   3.387684
     H   12   0.761700   0.061335   0.021831   0.024750   0.062228   3.276531
     H   13   0.023011   0.014269   0.009210   0.015169   0.019551   0.618630
     H   14   0.023266   0.016369   0.011471   0.014059   0.018989   0.617801
     H   15   0.058344   0.009840   0.006227   0.008953   0.012377   0.603502


                  H  7       H  8       H  9       H 10       C 11       H 12
 ------------------------------------------------------------------------------
     H    7   4.408897
     H    8   0.020139   4.393689
     H    9   0.015447   0.013581   4.363853
     H   10   0.011050   0.002481   0.003579   4.171153
     C   11   0.014461   0.008727   0.015759   0.601202  11.449259
     H   12   0.003146   0.003634   0.009651   0.415180   0.600547   4.169712
     H   13   0.006880   0.002110   0.002525   0.017678   3.491412   0.051622
     H   14   0.002515   0.001871   0.006801   0.051725   3.491437   0.017356
     H   15   0.002393   0.001570   0.002504   0.017442   3.489539   0.017545


                  H 13       H 14       H 15
 ------------------------------------------
     H   13   4.231822
     H   14   0.439125   4.231112
     H   15   0.437689   0.437896   4.233109


          HEAT OF FORMATION =      25.717770 KCALS/MOLE

          ZERO POINT ENERGY      73.273 KCAL/MOL


           NORMAL COORDINATE ANALYSIS (Total motion = 1 Angstrom)


   Root No.       1         2         3         4         5         6         7         8

                 1 A       2 A       3 A       4 A       5 A       6 A       7 A       8 A   

                  38.8     115.6     144.8     338.1     374.1     505.7     559.9     663.1
  
           1   -0.0166   -0.0103   -0.0090    0.0469   -0.0049   -0.0025   -0.0009    0.0230
           2    0.0122   -0.0118    0.0065   -0.0332   -0.0041   -0.0020    0.0000    0.0341
           3   -0.0015    0.0822   -0.0006   -0.0004   -0.0303    0.1135    0.0165    0.0129
           4   -0.0165   -0.0094   -0.0086    0.0480   -0.0084    0.0039    0.0008    0.0143
           5   -0.0057   -0.0128   -0.0058    0.0079   -0.0155    0.0109    0.0013   -0.0444
           6   -0.0414    0.0223   -0.0012   -0.0007   -0.0496   -0.0632    0.0313    0.0008
           7    0.0007   -0.0084    0.0036   -0.0014   -0.0106    0.0071    0.0020   -0.0243
           8   -0.0107   -0.0139   -0.0096    0.0264   -0.0150    0.0084    0.0005   -0.0451
           9   -0.0237   -0.0549   -0.0002    0.0015    0.0222    0.0311   -0.0822   -0.0003
          10    0.0107   -0.0088    0.0106   -0.0275   -0.0092    0.0051   -0.0014   -0.0303
          11    0.0040   -0.0129    0.0002   -0.0095   -0.0136    0.0093    0.0005   -0.0335
          12    0.0265   -0.0523    0.0011   -0.0007    0.0168    0.0061    0.1144   -0.0005
          13   -0.0002   -0.0095    0.0029    0.0058   -0.0114    0.0101    0.0018   -0.0437
          14    0.0180   -0.0117    0.0098   -0.0485   -0.0104    0.0064   -0.0006    0.0016
          15    0.0394    0.0228    0.0006   -0.0014   -0.0448   -0.0504   -0.0682   -0.0006
          16   -0.0312   -0.0077   -0.0086   -0.0489   -0.0017   -0.0015   -0.0002    0.0591
          17    0.0227   -0.0086    0.0060    0.0371   -0.0041   -0.0024    0.0001    0.0805
          18   -0.0007    0.0086   -0.0001    0.0007    0.0500   -0.0179   -0.0010   -0.0260
          19   -0.0282   -0.0106   -0.0168    0.0797   -0.0125    0.0085    0.0007   -0.0257
          20   -0.0138   -0.0134   -0.0112    0.0298   -0.0185    0.0123    0.0022   -0.0705
          21   -0.0776    0.0455   -0.0016    0.0006   -0.1024   -0.1989    0.1419   -0.0076
          22    0.0063   -0.0079    0.0072   -0.0163   -0.0111    0.0062    0.0044   -0.0368
          23   -0.0236   -0.0135   -0.0184    0.0624   -0.0155    0.0086    0.0008   -0.0159
          24   -0.0435   -0.1073   -0.0003    0.0044    0.0697    0.1067   -0.2789    0.0027
          25    0.0036   -0.0099    0.0058   -0.0063   -0.0112    0.0113    0.0033   -0.0535
          26    0.0319   -0.0117    0.0193   -0.0864   -0.0124    0.0084   -0.0024   -0.0327
          27    0.0759    0.0502    0.0007   -0.0051   -0.0922   -0.1356   -0.2426   -0.0021
          28   -0.0760   -0.0254   -0.0091   -0.1734    0.0053   -0.0124   -0.0023    0.0537
          29    0.0395   -0.0319    0.0115    0.0142    0.0037   -0.0193   -0.0016    0.0717
          30    0.0653   -0.0124    0.0095    0.0706    0.0523   -0.0301   -0.0017   -0.0220
          31    0.0492    0.0479    0.0076   -0.0111    0.0371   -0.0159   -0.0013    0.0095
          32   -0.0376    0.0634   -0.0062    0.0108    0.0508   -0.0221   -0.0010    0.0129
          33    0.0009   -0.0226    0.0003    0.0010    0.0335   -0.0131   -0.0004    0.0081
          34   -0.0592   -0.0253   -0.0136   -0.0635    0.0044   -0.0139   -0.0019    0.0535
          35    0.0603   -0.0311    0.0052    0.1626   -0.0027   -0.0177   -0.0015    0.0663
          36   -0.0671   -0.0152   -0.0097   -0.0706    0.0566   -0.0302   -0.0023   -0.0179
          37    0.0771    0.0698    0.0386    0.0075    0.0598   -0.0300   -0.0023   -0.0328
          38   -0.0784    0.0943    0.2570    0.0338    0.0822   -0.0426   -0.0040   -0.0492
          39    0.0675    0.0009   -0.0658    0.0223    0.0553   -0.0250   -0.0006   -0.0318
          40    0.0976    0.0682   -0.2359   -0.0263    0.0616   -0.0310   -0.0029   -0.0358
          41   -0.0537    0.0917   -0.1117   -0.0128    0.0837   -0.0419   -0.0038   -0.0478
          42   -0.0647    0.0000    0.0628   -0.0193    0.0564   -0.0251   -0.0022   -0.0343
          43    0.0364    0.0525    0.2371    0.0203    0.0400   -0.0188   -0.0018    0.0017
          44   -0.0282    0.0648   -0.1758   -0.0123    0.0558   -0.0253   -0.0013    0.0042
          45    0.0012   -0.0944    0.0043    0.0001   -0.0423    0.0290    0.0038    0.1554


   Root No.       9        10        11        12        13        14        15        16

                 9 A      10 A      11 A      12 A      13 A      14 A      15 A      16 A   

                 821.8     828.4     839.8     863.5     890.1     959.2    1065.0    1074.8
  
           1    0.0249    0.0023    0.0088    0.0013   -0.0001   -0.0191   -0.0049    0.0099
           2   -0.0177   -0.0027   -0.0061   -0.0016    0.0005   -0.0270   -0.0048   -0.0082
           3   -0.0007    0.0160   -0.0016    0.0033   -0.0078   -0.0060   -0.0077   -0.0005
           4   -0.0081    0.0024    0.0083    0.0025   -0.0012   -0.0630    0.0392   -0.0166
           5   -0.0523   -0.0064   -0.0176   -0.0025    0.0010    0.0232   -0.0124    0.0078
           6    0.0060   -0.0598    0.0006    0.0467    0.0448   -0.0014    0.0002    0.0002
           7   -0.0785   -0.0083   -0.0227   -0.0028    0.0026   -0.0036    0.0031    0.0021
           8   -0.0195   -0.0031   -0.0035   -0.0001    0.0003    0.0270   -0.0122   -0.0030
           9   -0.0010   -0.0171    0.0031   -0.0237   -0.0985   -0.0006    0.0001    0.0000
          10   -0.0031   -0.0015   -0.0023   -0.0013    0.0001    0.0190   -0.0076    0.0011
          11    0.0845    0.0093    0.0246    0.0032   -0.0006    0.0023    0.0026   -0.0054
          12   -0.0004    0.0143   -0.0037    0.0230    0.0134    0.0004    0.0003    0.0001
          13    0.0444    0.0058    0.0187    0.0041   -0.0007    0.0309   -0.0068   -0.0173
          14    0.0206    0.0024   -0.0050   -0.0020   -0.0003   -0.0577    0.0371    0.0267
          15    0.0005   -0.0251    0.0106   -0.0764    0.0324   -0.0005   -0.0009   -0.0006
          16    0.0230   -0.0025   -0.0286   -0.0074   -0.0000    0.0114   -0.0266    0.0421
          17   -0.0178    0.0017    0.0202    0.0044   -0.0008    0.0156   -0.0320   -0.0346
          18    0.0005   -0.0008   -0.0002   -0.0004    0.0006   -0.0106    0.0165    0.0025
          19    0.0415    0.0085    0.0306    0.0085   -0.0027   -0.0160    0.0300    0.0088
          20   -0.0204    0.0019   -0.0015   -0.0004   -0.0015    0.0543   -0.0178    0.0216
          21   -0.0336    0.4001   -0.0121   -0.2029   -0.1192    0.0050    0.0007   -0.0020
          22   -0.0430   -0.0087   -0.0150   -0.0034   -0.0052    0.0433   -0.0532    0.0202
          23   -0.1001   -0.0081   -0.0188   -0.0001    0.0015   -0.0902    0.1291   -0.0509
          24   -0.0126    0.2067   -0.0200    0.0506    0.4847    0.0032    0.0002   -0.0003
          25    0.0239    0.0014    0.0093   -0.0017    0.0009    0.0395    0.0029   -0.0116
          26   -0.0502   -0.0036   -0.0356   -0.0005   -0.0039   -0.0292    0.0711    0.0355
          27   -0.0044    0.1656   -0.0569    0.4007   -0.1880    0.0081    0.0016    0.0006
          28   -0.0678    0.0095    0.0901    0.0214   -0.0013   -0.0086   -0.0431   -0.1358
          29   -0.0065   -0.0055   -0.0244   -0.0026    0.0006   -0.0122   -0.0579   -0.1112
          30    0.0840   -0.0189   -0.1483   -0.0305    0.0031   -0.0223   -0.0151    0.0175
          31    0.0067   -0.0015   -0.0101   -0.0025    0.0002    0.0277    0.0229   -0.0290
          32   -0.0050    0.0003    0.0073    0.0016    0.0000    0.0382    0.0277    0.0242
[...]
 FREQUENCY          1199.54         C  5 -- H  9         +23.0% ( 57.9%)      0.2%
 TRANSITION DIPOLE   0.2269         C  3 -- H  8         +22.7% ( 57.5%)      0.1%
 TRAVEL (Ang.)       0.3706         C  2 -- H  7         +15.6% ( 47.7%)      2.4%
 REDUCED MASS        0.4094         C  2 -- C  5          +8.9% ( 35.9%)     19.3%
 EFFECTIVE MASS      3.0165
 FORCE CONSTANT      0.3471

 VIBRATION         22   22A           ATOM PAIR      ENERGY CONTRIBUTION    RADIAL
 FREQUENCY          1246.71         C 11 -- H 15         +49.3% ( 59.6%)      0.0%
 TRANSITION DIPOLE   0.5185         C 11 -- H 13         +23.9% ( 41.5%)      6.7%
 TRAVEL (Ang.)       0.3767         C 11 -- H 14         +23.0% ( 40.7%)      7.3%
 REDUCED MASS        0.3811         C  6 -- C 11          +3.4% ( 15.6%)      0.0%
 EFFECTIVE MASS      1.3756
 FORCE CONSTANT      0.3490

 VIBRATION         23   23A           ATOM PAIR      ENERGY CONTRIBUTION    RADIAL
 FREQUENCY          1249.13         C 11 -- H 14         +41.8% ( 56.1%)      1.3%
 TRANSITION DIPOLE   0.6304         C 11 -- H 13         +40.8% ( 55.4%)      1.4%
 TRAVEL (Ang.)       0.3688         C 11 -- H 15         +10.7% ( 28.4%)     42.8%
 REDUCED MASS        0.3968         C  6 -- C 11          +4.4% ( 18.2%)      1.9%
 EFFECTIVE MASS      1.5116
 FORCE CONSTANT      0.3648

 VIBRATION         24   24A           ATOM PAIR      ENERGY CONTRIBUTION    RADIAL
 FREQUENCY          1264.46         C  6 -- H 10         +39.6% ( 63.3%)      2.1%
 TRANSITION DIPOLE   0.2267         C  6 -- H 12         +39.3% ( 63.0%)      2.1%
 TRAVEL (Ang.)       0.3144         C  6 -- C 11          +8.8% ( 29.7%)     93.9%
 REDUCED MASS        0.5394         N  1 -- C  6          +7.7% ( 27.9%)      0.9%
 EFFECTIVE MASS      2.2705
 FORCE CONSTANT      0.5081

 VIBRATION         25   25A           ATOM PAIR      ENERGY CONTRIBUTION    RADIAL
 FREQUENCY          1303.72         C  6 -- H 12         +33.8% ( 66.3%)      0.1%
 TRANSITION DIPOLE   0.3655         C  6 -- H 10         +31.9% ( 64.3%)      0.2%
 TRAVEL (Ang.)       0.3078         C  6 -- C 11         +10.5% ( 36.9%)     47.5%
 REDUCED MASS        0.5459         N  1 -- C  6          +7.0% ( 30.0%)     80.0%
 EFFECTIVE MASS      3.0583
 FORCE CONSTANT      0.5467

 VIBRATION         26   26A           ATOM PAIR      ENERGY CONTRIBUTION    RADIAL
 FREQUENCY          1311.77         C  3 -- N  4         +19.2% ( 73.6%)    100.0%
 TRANSITION DIPOLE   1.4273         N  4 -- C  5         +11.0% ( 55.8%)     44.6%
 TRAVEL (Ang.)       0.1441         N  1 -- C  3         +10.4% ( 54.2%)     41.2%
 REDUCED MASS        2.4768         C  2 -- C  3          +9.5% ( 51.7%)     51.2%
 EFFECTIVE MASS     11.6068
 FORCE CONSTANT      2.5111

 VIBRATION         27   27A           ATOM PAIR      ENERGY CONTRIBUTION    RADIAL
 FREQUENCY          1336.23         C 11 -- H 15         +23.8% ( 52.6%)      0.8%
 TRANSITION DIPOLE   0.6339         C 11 -- H 14         +20.7% ( 49.0%)      1.8%
 TRAVEL (Ang.)       0.3728         C 11 -- H 13         +20.6% ( 48.9%)      1.7%
 REDUCED MASS        0.3631         C  6 -- H 10          +6.6% ( 27.7%)      0.1%
 EFFECTIVE MASS      2.8749
 FORCE CONSTANT      0.3819

 VIBRATION         28   28A           ATOM PAIR      ENERGY CONTRIBUTION    RADIAL
 FREQUENCY          1375.89         N  1 -- C  5         +20.0% ( 71.1%)     99.6%
 TRANSITION DIPOLE   0.5587         N  1 -- C  2         +15.3% ( 62.4%)     70.0%
 TRAVEL (Ang.)       0.1273         N  4 -- C  5         +10.8% ( 52.4%)     67.2%
 REDUCED MASS        3.0233         N  1 -- C  6         +10.6% ( 51.8%)      3.9%
 EFFECTIVE MASS     10.9448         N  1 -- C  3         +10.2% ( 50.7%)      0.1%
 FORCE CONSTANT      3.3721

 VIBRATION         29   29A           ATOM PAIR      ENERGY CONTRIBUTION    RADIAL
 FREQUENCY          1439.58         C  2 -- C  3         +19.3% ( 75.3%)     70.3%
 TRANSITION DIPOLE   0.7416         C  3 -- C  5         +12.1% ( 59.8%)     87.0%
 TRAVEL (Ang.)       0.1342         C  2 -- C  5         +11.0% ( 56.8%)     58.2%
 REDUCED MASS        2.5992         C  3 -- N  4         +10.6% ( 55.8%)     93.3%
 EFFECTIVE MASS     11.6883
 FORCE CONSTANT      3.1737

 VIBRATION         30   30A           ATOM PAIR      ENERGY CONTRIBUTION    RADIAL
 FREQUENCY          1494.27         N  1 -- C  2         +19.7% ( 73.3%)     75.4%
 TRANSITION DIPOLE   1.4903         N  1 -- C  6         +18.4% ( 71.0%)     99.4%
 TRAVEL (Ang.)       0.1008         N  1 -- C  5         +17.1% ( 68.3%)     64.1%
 REDUCED MASS        4.4452         N  1 -- C  3         +16.0% ( 66.1%)     82.6%
 EFFECTIVE MASS     12.5824
 FORCE CONSTANT      5.8479

 VIBRATION         31   31A           ATOM PAIR      ENERGY CONTRIBUTION    RADIAL
 FREQUENCY          1518.69         C  2 -- C  3         +15.4% ( 64.4%)     95.4%
 TRANSITION DIPOLE   0.8514         N  4 -- C  5         +13.0% ( 59.2%)     98.0%
 TRAVEL (Ang.)       0.1415         C  3 -- C  5         +10.0% ( 51.8%)     47.5%
 REDUCED MASS        2.2162         C  2 -- C  5          +9.7% ( 51.0%)      0.7%
 EFFECTIVE MASS     11.9896
 FORCE CONSTANT      3.0116

 VIBRATION         32   32A           ATOM PAIR      ENERGY CONTRIBUTION    RADIAL
 FREQUENCY          2647.48         C  6 -- H 12         +46.2% ( 70.3%)     98.1%
 TRANSITION DIPOLE   0.3512         C  6 -- H 10         +45.4% ( 69.7%)     98.0%
 TRAVEL (Ang.)       0.2412         C 11 -- H 13          +3.3% ( 18.8%)     98.2%
 REDUCED MASS        0.4377         C 11 -- H 14          +3.2% ( 18.6%)     98.1%
 EFFECTIVE MASS      1.4375
 FORCE CONSTANT      1.8075

 VIBRATION         33   33A           ATOM PAIR      ENERGY CONTRIBUTION    RADIAL
 FREQUENCY          2691.64         C 11 -- H 14         +51.8% ( 74.1%)     98.4%
 TRANSITION DIPOLE   0.7364         C 11 -- H 13         +39.3% ( 64.5%)     96.5%
 TRAVEL (Ang.)       0.2381         C  6 -- H 12          +3.8% ( 20.1%)     98.4%
 REDUCED MASS        0.4419         C  6 -- H 10          +2.4% ( 15.8%)     96.3%
 EFFECTIVE MASS      1.4684
 FORCE CONSTANT      1.8862

 VIBRATION         34   34A           ATOM PAIR      ENERGY CONTRIBUTION    RADIAL
 FREQUENCY          2692.89         C 11 -- H 15         +60.5% ( 80.1%)     99.4%
 TRANSITION DIPOLE   0.5742         C 11 -- H 13         +23.0% ( 49.4%)     90.9%
 TRAVEL (Ang.)       0.2370         C 11 -- H 14         +10.6% ( 33.6%)     77.7%
 REDUCED MASS        0.4458         C  6 -- H 10          +3.1% ( 18.2%)     98.9%
 EFFECTIVE MASS      1.4497
 FORCE CONSTANT      1.9048

 VIBRATION         35   35A           ATOM PAIR      ENERGY CONTRIBUTION    RADIAL
 FREQUENCY          2719.79         C  6 -- H 10         +47.0% ( 67.7%)     96.6%
 TRANSITION DIPOLE   0.6096         C  6 -- H 12         +46.0% ( 66.9%)     96.4%
 TRAVEL (Ang.)       0.2397         C 11 -- H 15          +4.9% ( 21.9%)     98.7%
 REDUCED MASS        0.4314         C  6 -- C 11          +0.5% (  7.0%)     52.7%
 EFFECTIVE MASS      1.2500
 FORCE CONSTANT      1.8801

 VIBRATION         36   36A           ATOM PAIR      ENERGY CONTRIBUTION    RADIAL
 FREQUENCY          2769.22         C  5 -- H  9         +88.4% ( 96.7%)    100.0%
 TRANSITION DIPOLE   1.2242         C  3 -- H  8          +3.8% ( 20.1%)    100.0%
 TRAVEL (Ang.)       0.1730         C  2 -- H  7          +2.3% ( 15.6%)    100.0%
 REDUCED MASS        0.8140         C  2 -- C  5          +1.3% ( 11.8%)     77.2%
 EFFECTIVE MASS      1.4268
 FORCE CONSTANT      3.6776

 VIBRATION         37   37A           ATOM PAIR      ENERGY CONTRIBUTION    RADIAL
 FREQUENCY          2780.55         C  3 -- H  8         +71.4% ( 86.6%)    100.0%
 TRANSITION DIPOLE   0.9195         C  2 -- H  7         +22.6% ( 48.8%)    100.0%
 TRAVEL (Ang.)       0.2052         C  3 -- C  5          +1.1% ( 10.7%)     85.9%
 REDUCED MASS        0.5761         C  2 -- C  3          +1.1% ( 10.6%)      4.9%
 EFFECTIVE MASS      1.4165
 FORCE CONSTANT      2.6241

 VIBRATION         38   38A           ATOM PAIR      ENERGY CONTRIBUTION    RADIAL
 FREQUENCY          2788.08         C 11 -- H 14         +31.9% ( 54.6%)     95.6%
 TRANSITION DIPOLE   0.4911         C 11 -- H 13         +31.7% ( 54.3%)     95.5%
 TRAVEL (Ang.)       0.2842         C 11 -- H 15         +31.1% ( 53.9%)     95.3%
 REDUCED MASS        0.2994         C  2 -- H  7          +4.1% ( 19.5%)    100.0%
 EFFECTIVE MASS      1.1591
 FORCE CONSTANT      1.3713

 VIBRATION         39   39A           ATOM PAIR      ENERGY CONTRIBUTION    RADIAL
 FREQUENCY          2792.89         C  2 -- H  7         +66.7% ( 83.5%)    100.0%
 TRANSITION DIPOLE   0.7446         C  3 -- H  8         +19.5% ( 45.2%)    100.0%
 TRAVEL (Ang.)       0.2200         C  5 -- H  9          +5.1% ( 23.0%)    100.0%
 REDUCED MASS        0.4988         C  2 -- C  3          +1.6% ( 13.0%)     91.4%
 EFFECTIVE MASS      1.4982
 FORCE CONSTANT      2.2924

      SYMMETRY NUMBER FOR POINT-GROUP C1  =  1


          SYSTEM IS A GROUND STATE


 All coordinates are Cartesian
 emi


          MOLECULE IS NOT LINEAR

          THERE ARE 39 GENUINE VIBRATIONS IN THIS SYSTEM
          THIS THERMODYNAMICS CALCULATION IS LIMITED TO
          MOLECULES WHICH HAVE NO INTERNAL ROTATIONS




                    CALCULATED THERMODYNAMIC PROPERTIES
                                          *
   TEMP. (K)   PARTITION FUNCTION   H.O.F.    ENTHALPY  HEAT CAPACITY ENTROPY
                                   KCAL/MOL   CAL/MOLE    CAL/K/MOL  CAL/K/MOL


 298.00  VIB.     0.5709D+02                  2560.6050    18.6061    16.6300
         ROT.     0.1892D+06                   888.2803     2.9808    27.1263
         INT.     0.1080D+08                  3448.8853    21.5869    43.7563
         TRA.     0.9112D+27                  1480.4672     4.9680    39.5982
         TOT.                       25.718    4929.3525    26.5549    83.3545

 200.00  VIB.     0.1416D+02                  1120.2846    11.0860    10.8687
         ROT.     0.1040D+06                   596.1613     2.9808    25.9376
         INT.     0.1473D+07                  1716.4459    14.0668    36.8063
         TRA.     0.5010D+27                   993.6021     4.9680    37.6170
         TOT.                       23.498    2710.0480    19.0348    74.4234

 210.00  VIB.     0.1631D+02                  1234.4871    11.7590    11.4258
         ROT.     0.1119D+06                   625.9693     2.9808    26.0830
         INT.     0.1825D+07                  1860.4565    14.7398    37.5088
         TRA.     0.5390D+27                  1043.2822     4.9680    37.8594
         TOT.                       23.692    2903.7387    19.7078    75.3682

 220.00  VIB.     0.1877D+02                  1355.5526    12.4584    11.9889
         ROT.     0.1200D+06                   655.7774     2.9808    26.2217
         INT.     0.2253D+07                  2011.3300    15.4392    38.2106
         TRA.     0.5780D+27                  1092.9623     4.9680    38.0905
         TOT.                       23.893    3104.2923    20.4072    76.3011

 230.00  VIB.     0.2162D+02                  1483.7389    13.1829    12.5586
         ROT.     0.1283D+06                   685.5855     2.9808    26.3542
         INT.     0.2773D+07                  2169.3243    16.1637    38.9128
         TRA.     0.6179D+27                  1142.6424     4.9680    38.3114
         TOT.                       24.100    3311.9668    21.1317    77.2241

 240.00  VIB.     0.2490D+02                  1619.2882    13.9307    13.1353
         ROT.     0.1367D+06                   715.3935     2.9808    26.4811
         INT.     0.3404D+07                  2334.6817    16.9115    39.6164
         TRA.     0.6586D+27                  1192.3226     4.9680    38.5228
         TOT.                       24.315    3527.0043    21.8795    78.1392

 250.00  VIB.     0.2869D+02                  1762.4230    14.6996    13.7195
         ROT.     0.1454D+06                   745.2016     2.9808    26.6027
         INT.     0.4170D+07                  2507.6246    17.6804    40.3223
         TRA.     0.7002D+27                  1242.0027     4.9680    38.7256
         TOT.                       24.538    3749.6273    22.6484    79.0479

 260.00  VIB.     0.3307D+02                  1913.3432    15.4873    14.3113
         ROT.     0.1542D+06                   775.0097     2.9808    26.7197
         INT.     0.5098D+07                  2688.3528    18.4681    41.0310
         TRA.     0.7426D+27                  1291.6828     4.9680    38.9205
         TOT.                       24.768    3980.0356    23.4361    79.9515

 270.00  VIB.     0.3814D+02                  2072.2236    16.2912    14.9109
         ROT.     0.1632D+06                   804.8177     2.9808    26.8321
         INT.     0.6223D+07                  2877.0413    19.2721    41.7430
         TRA.     0.7859D+27                  1341.3629     4.9680    39.1080
         TOT.                       25.007    4218.4042    24.2401    80.8510

 280.00  VIB.     0.4402D+02                  2239.2134    17.1087    15.5181
         ROT.     0.1723D+06                   834.6258     2.9808    26.9406
         INT.     0.7585D+07                  3073.8392    20.0896    42.4586
         TRA.     0.8299D+27                  1391.0430     4.9680    39.2886
         TOT.                       25.253    4464.8821    25.0576    81.7473

 290.00  VIB.     0.5084D+02                  2414.4351    17.9372    16.1329
         ROT.     0.1816D+06                   864.4339     2.9808    27.0452
         INT.     0.9234D+07                  3278.8689    20.9180    43.1780
         TRA.     0.8748D+27                  1440.7231     4.9680    39.4630
         TOT.                       25.508    4719.5920    25.8860    82.6410

 300.00  VIB.     0.5877D+02                  2597.9850    18.7740    16.7551
         ROT.     0.1911D+06                   894.2419     2.9808    27.1462
         INT.     0.1123D+08                  3492.2270    21.7548    43.9013
         TRA.     0.9204D+27                  1490.4032     4.9680    39.6314
         TOT.                       25.771    4982.6301    26.7228    83.5327

 310.00  VIB.     0.6799D+02                  2789.9341    19.6166    17.3844
         ROT.     0.2007D+06                   924.0500     2.9808    27.2439
         INT.     0.1365D+08                  3713.9841    22.5974    44.6283
         TRA.     0.9668D+27                  1540.0833     4.9680    39.7943
         TOT.                       26.042    5254.0674    27.5654    84.4226

 320.00  VIB.     0.7871D+02                  2990.3287    20.4627    18.0205
         ROT.     0.2105D+06                   953.8580     2.9808    27.3386
         INT.     0.1657D+08                  3944.1868    23.4435    45.3591
         TRA.     0.1014D+28                  1589.7634     4.9680    39.9520
         TOT.                       26.322    5533.9502    28.4115    85.3112

 330.00  VIB.     0.9121D+02                  3199.1923    21.3100    18.6632
         ROT.     0.2205D+06                   983.6661     2.9808    27.4303
         INT.     0.2011D+08                  4182.8584    24.2909    46.0935
         TRA.     0.1062D+28                  1639.4435     4.9680    40.1049
         TOT.                       26.611    5822.3019    29.2589    86.1984

 340.00  VIB.     0.1058D+03                  3416.5270    22.1566    19.3119
         ROT.     0.2306D+06                  1013.4742     2.9808    27.5193
         INT.     0.2439D+08                  4430.0012    25.1374    46.8312
         TRA.     0.1110D+28                  1689.1236     4.9680    40.2532
         TOT.                       26.908    6119.1248    30.1054    87.0844

 350.00  VIB.     0.1228D+03                  3642.3155    23.0005    19.9664
         ROT.     0.2408D+06                  1043.2822     2.9808    27.6057
         INT.     0.2957D+08                  4685.5977    25.9813    47.5721
         TRA.     0.1160D+28                  1738.8037     4.9680    40.3972
         TOT.                       27.213    6424.4015    30.9493    87.9693

 360.00  VIB.     0.1427D+03                  3876.5226    23.8401    20.6261
         ROT.     0.2512D+06                  1073.0903     2.9808    27.6897
         INT.     0.3584D+08                  4949.6129    26.8209    48.3158
         TRA.     0.1210D+28                  1788.4838     4.9680    40.5372
         TOT.                       27.527    6738.0968    31.7889    88.8530

 370.00  VIB.     0.1660D+03                  4119.0976    24.6738    21.2907
         ROT.     0.2617D+06                  1102.8984     2.9808    27.7713
         INT.     0.4344D+08                  5221.9960    27.6546    49.0620
         TRA.     0.1261D+28                  1838.1639     4.9680    40.6733
         TOT.                       27.849    7060.1599    32.6227    89.7353

 380.00  VIB.     0.1932D+03                  4369.9756    25.5005    21.9597
         ROT.     0.2724D+06                  1132.7064     2.9808    27.8508
         INT.     0.5262D+08                  5502.6820    28.4813    49.8105
         TRA.     0.1312D+28                  1887.8440     4.9680    40.8058
         TOT.                       28.179    7390.5261    33.4493    90.6163

 390.00  VIB.     0.2250D+03                  4629.0795    26.3188    22.6327
         ROT.     0.2832D+06                  1162.5145     2.9808    27.9283
         INT.     0.6374D+08                  5791.5940    29.2997    50.5609
         TRA.     0.1364D+28                  1937.5242     4.9680    40.9348
         TOT.                       28.518    7729.1181    34.2677    91.4958

 400.00  VIB.     0.2624D+03                  4896.3217    27.1280    23.3092
         ROT.     0.2942D+06                  1192.3226     2.9808    28.0037
         INT.     0.7720D+08                  6088.6443    30.1088    51.3130
         TRA.     0.1417D+28                  1987.2043     4.9680    41.0606
         TOT.                       28.864    8075.8486    35.0768    92.3736

   *: NOTE: HEATS OF FORMATION ARE RELATIVE TO THE
            ELEMENTS IN THEIR STANDARD STATE AT 298K
              (=  Standard Enthalpy of Formation).

            Hvib:  Zero-point energy is not included.
                   frequencies of less than zero cm-1 are not included.
            Hrot = (3/2)RT
            Htra = (3/2)RT + pV = (5/2)RT

            Heat capacity is Cp, not Cv

          For more information, see: HTTP://OpenMOPAC.net/Manual/thermochemistry.html


           FORCE CONSTANT IN CARTESIAN COORDINATES (Millidynes/A)

    ATOM   CHEMICAL       X               Y               Z
   NUMBER   SYMBOL  FORCE CONSTANT  FORCE CONSTANT  FORCE CONSTANT

      1       N       10.979098       11.833881        1.376196
      2       C        8.703589       11.368584        1.846212
      3       C       10.564515        9.151464        2.099939
      4       N        8.908699        8.609089        1.233799
      5       C       11.918797        7.641137        1.972494
      6       C        6.940514        7.130095        6.964096
      7       H        1.881359        3.201453        0.322261
      8       H        3.819902        1.237912        0.351555
      9       H        4.001761        1.047693        0.339085
     10       H        1.264623        2.688469        1.530720
     11       C        6.347496        6.434935        7.018746
     12       H        3.174232        0.834820        1.472042
     13       H        3.071715        0.718055        1.577015
     14       H        1.253755        2.458811        1.655628
     15       H        1.788162        2.854577        0.704735

 **********************
 *                    *
 * JOB ENDED NORMALLY *
 *                    *
 **********************



 TOTAL JOB TIME:             1.64 SECONDS

 == MOPAC DONE ==
