 *******************************************************************************
 **                                                                           **
 **                              MOPAC v22.1.1                                **
 **                                                                           **
 *******************************************************************************
 **          Digital Object Identifier (DOI): 10.5281/zenodo.6511958          **
 **    Visit the DOI location for information on how to cite this program.    **
 *******************************************************************************

                              PM6 CALCULATION RESULTS

 *******************************************************************************
 *  CALCULATION DONE:                                Mon Apr 22 11:30:39 2024  *
 *  PM6        - The PM6 Hamiltonian to be used
 *  MMOK       - APPLY MM CORRECTION TO CONH BARRIER
 *  STATIC     - CALCULATE STATIC FIELD POLARIZABILITIES
 *  POLAR      - CALCULATE FIRST, SECOND AND THIRD-ORDER POLARIZABILITIES
 *  PRECISE    - TIGHTER CRITERIA TO BE USED
 *  XYZ        - CARTESIAN COORDINATE SYSTEM TO BE USED
 *  T=         - A TIME OF 172800.0 SECONDS REQUESTED
 *  DUMP=N     - RESTART FILE WRITTEN EVERY 7200.0 SECONDS REQUESTED
 *  CYCLES=    - DO A MAXIMUM OF 8000 STEPS
 *  ENPART     - ENERGY TO BE PARTITIONED INTO COMPONENTS
 *  PRTXYZ     - PRINT CARTESIAN COORDINATES
 *  DISP       - PRINT DISPERSION AND HYDROGEN BOND ENERGIES
 *  BONDS      - FINAL BOND-ORDER MATRIX TO BE PRINTED
 *  LARGE      - EXPANDED OUTPUT TO BE PRINTED
 *  SUPER      - PRINT SUPERDELOCALIZABILITIES
 *  ALLVEC     - PRINT ALL EIGENVECTORS
 *******************************************************************************
PM6 PRECISE POLAR MMOK XYZ ENPART STATIC SUPER BONDS LARGE PRTXYZ DISP ALLVEC CYCLES = 8000
 etscn
 All coordinates are Cartesian
   ATOM   CHEMICAL          X               Y               Z
  NUMBER   SYMBOL      (ANGSTROMS)     (ANGSTROMS)     (ANGSTROMS)
 
     1       C          1.27900000  *  -0.20400000  *   0.51700000  *
     2       S         -0.23000000  *  -1.02700000  *  -0.18600000  *
     3       C         -1.36300000  *   0.22200000  *   0.00700000  *
     4       N         -2.16100000  *   1.05500000  *   0.12400000  *
     5       H          2.01000000  *  -1.01500000  *   0.51200000  *
     6       H          1.05900000  *   0.04700000  *   1.55500000  *
     7       C          1.76200000  *   0.99800000  *  -0.28000000  *
     8       H          1.01300000  *   1.79200000  *  -0.29300000  *
     9       H          1.99400000  *   0.72500000  *  -1.31200000  *
    10       H          2.66900000  *   1.40000000  *   0.18100000  *
    11       C         -1.84200000  *   0.72100000  *   0.07700000  *
 


          CARTESIAN COORDINATES 

    NO.       ATOM           X           Y           Z

     1         C          1.2790     -0.2040      0.5170
     2         S         -0.2300     -1.0270     -0.1860
     3         C         -1.3630      0.2220      0.0070
     4         N         -2.1610      1.0550      0.1240
     5         H          2.0100     -1.0150      0.5120
     6         H          1.0590      0.0470      1.5550
     7         C          1.7620      0.9980     -0.2800
     8         H          1.0130      1.7920     -0.2930
     9         H          1.9940      0.7250     -1.3120
    10         H          2.6690      1.4000      0.1810
    11         C         -1.8420      0.7210      0.0770

 General Reference for PM6:
 "Optimization of Parameters for Semiempirical Methods V: Modification of NDDO Approximations
 and Application to 70 Elements", J. J. P. Stewart, J. Mol. Mod., 13, 1173-1213 (2007)
 URL: https://link.springer.com/article/10.1007/s00894-007-0233-4

           Empirical Formula: C4 H5 N S  =    11 atoms



      MOLECULAR POINT GROUP   :   C1  


      RHF CALCULATION, NO. OF DOUBLY OCCUPIED LEVELS = 16


          Geometry optimization using EF

          DIAGONAL MATRIX USED AS START HESSIAN

 CYCLE:     1 TIME:   0.109 TIME LEFT:  2.00D  GRAD.:614731.033 HEAT:  20265.46
 NUMERICAL PROBLEMS IN BRACKETING LAMBDA   200.000000000181     
  -1000000.00000000        199.999999999981       0.337570183678730     
  1.401437156507212E+029
  GOING FOR FIXED LEVEL SHIFTED NR STEP...
 NUMERICAL PROBLEMS IN BRACKETING LAMBDA   200.000000000181     
  -1000000.00000000        199.999999999981       0.375070183678730     
  1.401437156507212E+029
  GOING FOR FIXED LEVEL SHIFTED NR STEP...
 CYCLE:     2 TIME:   0.023 TIME LEFT:  2.00D  GRAD.:238362.502 HEAT:  10395.40
 CYCLE:     3 TIME:   0.016 TIME LEFT:  2.00D  GRAD.:138360.913 HEAT:  7000.040
 CYCLE:     4 TIME:   0.012 TIME LEFT:  2.00D  GRAD.: 69779.604 HEAT:  4361.296
 CYCLE:     5 TIME:   0.012 TIME LEFT:  2.00D  GRAD.: 38694.265 HEAT:  2813.245
 CYCLE:     6 TIME:   0.012 TIME LEFT:  2.00D  GRAD.:  9628.772 HEAT:  1469.040
 CYCLE:     7 TIME:   0.012 TIME LEFT:  2.00D  GRAD.:  2512.685 HEAT:  434.9540
 CYCLE:     8 TIME:   0.020 TIME LEFT:  2.00D  GRAD.:   685.451 HEAT:  276.2181
 CYCLE:     9 TIME:   0.012 TIME LEFT:  2.00D  GRAD.:   444.245 HEAT:  240.6888
 CYCLE:    10 TIME:   0.012 TIME LEFT:  2.00D  GRAD.:   424.603 HEAT:  217.6698
 CYCLE:    11 TIME:   0.012 TIME LEFT:  2.00D  GRAD.:   234.438 HEAT:  200.1340
 CYCLE:    12 TIME:   0.027 TIME LEFT:  2.00D  GRAD.:   155.368 HEAT:  181.0916
 CYCLE:    13 TIME:   0.012 TIME LEFT:  2.00D  GRAD.:   300.672 HEAT:  180.6723
 CYCLE:    14 TIME:   0.027 TIME LEFT:  2.00D  GRAD.:   238.540 HEAT:  168.7921
 CYCLE:    15 TIME:   0.023 TIME LEFT:  2.00D  GRAD.:   172.547 HEAT:  162.5880
 CYCLE:    16 TIME:   0.016 TIME LEFT:  2.00D  GRAD.:   117.022 HEAT:  157.8214
 CYCLE:    17 TIME:   0.023 TIME LEFT:  2.00D  GRAD.:   130.505 HEAT:  156.6281
 CYCLE:    18 TIME:   0.016 TIME LEFT:  2.00D  GRAD.:    99.473 HEAT:  154.5111
 CYCLE:    19 TIME:   0.012 TIME LEFT:  2.00D  GRAD.:   108.590 HEAT:  154.1544
 CYCLE:    20 TIME:   0.016 TIME LEFT:  2.00D  GRAD.:    99.034 HEAT:  152.6518
 CYCLE:    21 TIME:   0.016 TIME LEFT:  2.00D  GRAD.:   116.675 HEAT:  151.2644
 CYCLE:    22 TIME:   0.012 TIME LEFT:  2.00D  GRAD.:    90.059 HEAT:  150.4707
 CYCLE:    23 TIME:   0.016 TIME LEFT:  2.00D  GRAD.:    89.395 HEAT:  149.7704
 CYCLE:    24 TIME:   0.012 TIME LEFT:  2.00D  GRAD.:    99.634 HEAT:  149.6954
 CYCLE:    25 TIME:   0.016 TIME LEFT:  2.00D  GRAD.:    90.468 HEAT:  148.6189
 CYCLE:    26 TIME:   0.012 TIME LEFT:  2.00D  GRAD.:    92.143 HEAT:  148.0469
 CYCLE:    27 TIME:   0.016 TIME LEFT:  2.00D  GRAD.:    97.989 HEAT:  147.2005
 CYCLE:    28 TIME:   0.012 TIME LEFT:  2.00D  GRAD.:    92.442 HEAT:  145.7847
 CYCLE:    29 TIME:   0.012 TIME LEFT:  2.00D  GRAD.:    88.667 HEAT:  144.2131
 CYCLE:    30 TIME:   0.016 TIME LEFT:  2.00D  GRAD.:    67.410 HEAT:  140.9436
 CYCLE:    31 TIME:   0.012 TIME LEFT:  2.00D  GRAD.:    71.335 HEAT:  138.1476
 CYCLE:    32 TIME:   0.016 TIME LEFT:  2.00D  GRAD.:    99.420 HEAT:  135.9629
 CYCLE:    33 TIME:   0.012 TIME LEFT:  2.00D  GRAD.:    72.355 HEAT:  135.4346
 CYCLE:    34 TIME:   0.027 TIME LEFT:  2.00D  GRAD.:    57.400 HEAT:  133.2001
 CYCLE:    35 TIME:   0.012 TIME LEFT:  2.00D  GRAD.:    98.072 HEAT:  132.4852
 CYCLE:    36 TIME:   0.012 TIME LEFT:  2.00D  GRAD.:    59.891 HEAT:  131.0188
 CYCLE:    37 TIME:   0.016 TIME LEFT:  2.00D  GRAD.:    41.464 HEAT:  129.9818
 CYCLE:    38 TIME:   0.012 TIME LEFT:  2.00D  GRAD.:    31.709 HEAT:  129.0944
 CYCLE:    39 TIME:   0.012 TIME LEFT:  2.00D  GRAD.:    42.482 HEAT:  127.9269
 CYCLE:    40 TIME:   0.012 TIME LEFT:  2.00D  GRAD.:    26.101 HEAT:  126.8364
 CYCLE:    41 TIME:   0.016 TIME LEFT:  2.00D  GRAD.:    20.229 HEAT:  126.2744
 CYCLE:    42 TIME:   0.023 TIME LEFT:  2.00D  GRAD.:    34.672 HEAT:  125.7067
 CYCLE:    43 TIME:   0.031 TIME LEFT:  2.00D  GRAD.:    36.225 HEAT:  125.1523
 CYCLE:    44 TIME:   0.012 TIME LEFT:  2.00D  GRAD.:    30.133 HEAT:  124.7211
 CYCLE:    45 TIME:   0.012 TIME LEFT:  2.00D  GRAD.:    30.649 HEAT:  124.4116
 CYCLE:    46 TIME:   0.012 TIME LEFT:  2.00D  GRAD.:    14.860 HEAT:  124.0563
 CYCLE:    47 TIME:   0.012 TIME LEFT:  2.00D  GRAD.:    11.446 HEAT:  123.9309
 CYCLE:    48 TIME:   0.016 TIME LEFT:  2.00D  GRAD.:    15.596 HEAT:  123.7476
 CYCLE:    49 TIME:   0.012 TIME LEFT:  2.00D  GRAD.:    11.515 HEAT:  123.6123
 CYCLE:    50 TIME:   0.016 TIME LEFT:  2.00D  GRAD.:    11.061 HEAT:  123.5447
 CYCLE:    51 TIME:   0.012 TIME LEFT:  2.00D  GRAD.:    10.010 HEAT:  123.4811
 CYCLE:    52 TIME:   0.012 TIME LEFT:  2.00D  GRAD.:     9.998 HEAT:  123.4158
 CYCLE:    53 TIME:   0.016 TIME LEFT:  2.00D  GRAD.:     8.020 HEAT:  123.3770
 CYCLE:    54 TIME:   0.012 TIME LEFT:  2.00D  GRAD.:     9.933 HEAT:  123.3331
 CYCLE:    55 TIME:   0.012 TIME LEFT:  2.00D  GRAD.:     5.928 HEAT:  123.2788
 CYCLE:    56 TIME:   0.016 TIME LEFT:  2.00D  GRAD.:     4.472 HEAT:  123.2465
 CYCLE:    57 TIME:   0.012 TIME LEFT:  2.00D  GRAD.:     5.631 HEAT:  123.2337
 CYCLE:    58 TIME:   0.016 TIME LEFT:  2.00D  GRAD.:     4.577 HEAT:  123.2075
 CYCLE:    59 TIME:   0.012 TIME LEFT:  2.00D  GRAD.:     2.434 HEAT:  123.1963
 CYCLE:    60 TIME:   0.012 TIME LEFT:  2.00D  GRAD.:     2.073 HEAT:  123.1869
 CYCLE:    61 TIME:   0.012 TIME LEFT:  2.00D  GRAD.:     1.690 HEAT:  123.1825
 CYCLE:    62 TIME:   0.016 TIME LEFT:  2.00D  GRAD.:     1.443 HEAT:  123.1785
 CYCLE:    63 TIME:   0.016 TIME LEFT:  2.00D  GRAD.:     1.977 HEAT:  123.1744
 CYCLE:    64 TIME:   0.012 TIME LEFT:  2.00D  GRAD.:     3.008 HEAT:  123.1681
 CYCLE:    65 TIME:   0.016 TIME LEFT:  2.00D  GRAD.:     4.708 HEAT:  123.1521
 CYCLE:    66 TIME:   0.012 TIME LEFT:  2.00D  GRAD.:     3.321 HEAT:  123.1324
 CYCLE:    67 TIME:   0.012 TIME LEFT:  2.00D  GRAD.:     2.435 HEAT:  123.1204
 CYCLE:    68 TIME:   0.016 TIME LEFT:  2.00D  GRAD.:     2.190 HEAT:  123.1157
 CYCLE:    69 TIME:   0.012 TIME LEFT:  2.00D  GRAD.:     2.235 HEAT:  123.1131
 CYCLE:    70 TIME:   0.012 TIME LEFT:  2.00D  GRAD.:     1.909 HEAT:  123.1095
 CYCLE:    71 TIME:   0.012 TIME LEFT:  2.00D  GRAD.:     1.826 HEAT:  123.1075
 CYCLE:    72 TIME:   0.016 TIME LEFT:  2.00D  GRAD.:     1.561 HEAT:  123.1022
 CYCLE:    73 TIME:   0.020 TIME LEFT:  2.00D  GRAD.:     1.342 HEAT:  123.1003
 CYCLE:    74 TIME:   0.012 TIME LEFT:  2.00D  GRAD.:     1.120 HEAT:  123.0990
 CYCLE:    75 TIME:   0.012 TIME LEFT:  2.00D  GRAD.:     1.001 HEAT:  123.0985
 CYCLE:    76 TIME:   0.012 TIME LEFT:  2.00D  GRAD.:     0.797 HEAT:  123.0983
 CYCLE:    77 TIME:   0.016 TIME LEFT:  2.00D  GRAD.:     0.854 HEAT:  123.0982
 CYCLE:    78 TIME:   0.012 TIME LEFT:  2.00D  GRAD.:     0.904 HEAT:  123.0981
 CYCLE:    79 TIME:   0.012 TIME LEFT:  2.00D  GRAD.:     0.921 HEAT:  123.0980
 CYCLE:    80 TIME:   0.012 TIME LEFT:  2.00D  GRAD.:     1.467 HEAT:  123.0996
 CYCLE:    81 TIME:   0.012 TIME LEFT:  2.00D  GRAD.:     0.963 HEAT:  123.0972
 CYCLE:    82 TIME:   0.012 TIME LEFT:  2.00D  GRAD.:     0.971 HEAT:  123.0968
 CYCLE:    83 TIME:   0.016 TIME LEFT:  2.00D  GRAD.:     1.780 HEAT:  123.0944
 CYCLE:    84 TIME:   0.012 TIME LEFT:  2.00D  GRAD.:     1.461 HEAT:  123.0920
 CYCLE:    85 TIME:   0.012 TIME LEFT:  2.00D  GRAD.:     1.687 HEAT:  123.0842
 CYCLE:    86 TIME:   0.012 TIME LEFT:  2.00D  GRAD.:     2.167 HEAT:  123.0773
 CYCLE:    87 TIME:   0.016 TIME LEFT:  2.00D  GRAD.:     3.093 HEAT:  123.0694
 CYCLE:    88 TIME:   0.012 TIME LEFT:  2.00D  GRAD.:     1.437 HEAT:  123.0642
 CYCLE:    89 TIME:   0.012 TIME LEFT:  2.00D  GRAD.:     1.209 HEAT:  123.0604
 CYCLE:    90 TIME:   0.012 TIME LEFT:  2.00D  GRAD.:     1.003 HEAT:  123.0591
 CYCLE:    91 TIME:   0.012 TIME LEFT:  2.00D  GRAD.:     0.694 HEAT:  123.0578
 CYCLE:    92 TIME:   0.016 TIME LEFT:  2.00D  GRAD.:     0.857 HEAT:  123.0572
 CYCLE:    93 TIME:   0.012 TIME LEFT:  2.00D  GRAD.:     0.316 HEAT:  123.0567
 CYCLE:    94 TIME:   0.012 TIME LEFT:  2.00D  GRAD.:     0.245 HEAT:  123.0565
 CYCLE:    95 TIME:   0.012 TIME LEFT:  2.00D  GRAD.:     0.197 HEAT:  123.0562
 CYCLE:    96 TIME:   0.012 TIME LEFT:  2.00D  GRAD.:     0.094 HEAT:  123.0561
 CYCLE:    97 TIME:   0.012 TIME LEFT:  2.00D  GRAD.:     0.059 HEAT:  123.0561
 CYCLE:    98 TIME:   0.012 TIME LEFT:  2.00D  GRAD.:     0.030 HEAT:  123.0561

     GRADIENT =  0.03002 IS LESS THAN CUTOFF =  0.05000



 -------------------------------------------------------------------------------
 PM6 PRECISE POLAR MMOK XYZ ENPART STATIC SUPER BONDS LARGE PRTXYZ DISP ALLVEC CYCLES = 8000
 etscn
 All coordinates are Cartesian


     GEOMETRY OPTIMISED USING EIGENVECTOR FOLLOWING (EF).     
     SCF FIELD WAS ACHIEVED                                   


                              PM6 CALCULATION
                                                       MOPAC v22.1.1 MacOS
                                                       Mon Apr 22 11:30:40 2024




          FINAL HEAT OF FORMATION =        123.05613 KCAL/MOL =     514.86684 KJ/MOL

          TOTAL ENERGY            =     -20918.62939 KCAL/MOL = ELECTRONIC ENERGY + CORE-CORE REPULSION
          ENERGY OF ATOMS         =      21041.68552 KCAL/MOL
                              SUM =        123.05613 KCAL/MOL
          DISPERSION ENERGY       =          0.00000 KCAL/MOL
                              SUM =        123.05613 KCAL/MOL = FINAL HEAT OF FORMATION



          TOTAL ENERGY            =       -907.11763 EV
          ELECTRONIC ENERGY       =      -3339.66582 EV 
          CORE-CORE REPULSION     =       2432.54819 EV
          COSMO AREA              =        137.69 SQUARE ANGSTROMS
          COSMO VOLUME            =        129.10 CUBIC ANGSTROMS

          GRADIENT NORM           =          0.03002          =       0.00905 PER ATOM
          IONIZATION POTENTIAL    =          9.798767 EV
          HOMO LUMO ENERGIES (EV) =         -9.799 -0.937
          NO. OF FILLED LEVELS    =         16
          MOLECULAR WEIGHT        =         99.1502         POINT GROUP:  C1  

          MOLECULAR DIMENSIONS (Angstroms)

            Atom       Atom       Distance
            H    10    N     4     5.49886
            H     6    C    11     3.15113
            H     8    H     5     2.98496


          SCF CALCULATIONS        =        106
 
          WALL-CLOCK TIME         =      1.496 SECONDS
          COMPUTATION TIME        =      9.389 SECONDS




   ATOM   CHEMICAL          X               Y               Z
  NUMBER   SYMBOL      (ANGSTROMS)     (ANGSTROMS)     (ANGSTROMS)
 
     1       C          1.38279243  *  -0.41751389  *   0.04517867  *
     2       S         -0.26556695  *  -0.72384692  *   0.75154843  *
     3       C         -1.27018186  *   0.21774779  *  -0.12374305  *
     4       N         -2.58987315  *   0.54106766  *  -0.21955199  *
     5       H          1.38220139  *  -0.61996734  *  -1.04450116  *
     6       H          2.05178868  *  -1.17291142  *   0.50866670  *
     7       C          1.84523910  *   0.99060173  *   0.33956723  *
     8       H          1.84691692  *   1.21960528  *   1.41407260  *
     9       H          1.21513548  *   1.74571082  *  -0.15444292  *
    10       H          2.87107247  *   1.15482951  *  -0.02246795  *
    11       C         -1.78082125  *   1.18597332  *  -1.11764472  *

                             CARTESIAN COORDINATES

   1    C        1.382792435    -0.417513886     0.045178675
   2    S       -0.265566946    -0.723846918     0.751548434
   3    C       -1.270181864     0.217747790    -0.123743052
   4    N       -2.589873152     0.541067657    -0.219551994
   5    H        1.382201389    -0.619967341    -1.044501159
   6    H        2.051788681    -1.172911425     0.508666704
   7    C        1.845239102     0.990601730     0.339567231
   8    H        1.846916918     1.219605283     1.414072601
   9    H        1.215135477     1.745710824    -0.154442925
  10    H        2.871072466     1.154829510    -0.022467947
  11    C       -1.780821249     1.185973319    -1.117644722


           Empirical Formula: C4 H5 N S  =    11 atoms



      MOLECULAR POINT GROUP   :   C1  


                EIGENVECTORS  


   Root No.       1         2         3         4         5         6         7         8

                 1 A       2 A       3 A       4 A       5 A       6 A       7 A       8 A   

               -33.953   -30.655   -26.699   -22.262   -18.819   -18.392   -16.181   -15.351
  
  S   C    1    0.0395    0.3975    0.3650    0.4714    0.0004    0.1466    0.0027   -0.0932
  Px  C    1   -0.0238   -0.1020    0.1624    0.0116    0.0308    0.2135    0.2091    0.2549
  Py  C    1    0.0036    0.0211    0.1459   -0.2479   -0.0300   -0.0004   -0.1690   -0.3185
  Pz  C    1    0.0036    0.0444   -0.0044   -0.0584    0.0697   -0.2354    0.5017   -0.1409
  S   S    2    0.1680    0.7047   -0.3833   -0.0541    0.1141   -0.3244    0.0025    0.1215
  Px  S    2   -0.0532    0.0660    0.1496    0.2583   -0.0182   -0.2704    0.0601   -0.2242
  Py  S    2    0.0625    0.1223   -0.0468   -0.1028   -0.0759    0.1087   -0.0108   -0.1860
  Pz  S    2   -0.0607   -0.1491    0.0608   -0.0115    0.0990   -0.1266    0.1253   -0.0288
  x2  S    2    0.0055    0.0213    0.0060    0.0292    0.0243   -0.0011    0.0180   -0.0228
  xz  S    2    0.0084    0.0014   -0.0247   -0.0471   -0.0046    0.0477    0.0159    0.0430
  z2  S    2   -0.0039   -0.0106   -0.0031   -0.0057   -0.0183   -0.0006   -0.0244    0.0278
  yz  S    2   -0.0081   -0.0206    0.0138    0.0177    0.0247   -0.0298    0.0098    0.0034
  xy  S    2   -0.0109   -0.0116    0.0271    0.0230    0.0005   -0.0526   -0.0080   -0.0344
  S   C    3    0.4650    0.1649   -0.1759   -0.1975   -0.2287    0.4152    0.1176   -0.0387
  Px  C    3   -0.2105    0.2139   -0.1104   -0.0678   -0.2874   -0.0660   -0.1050    0.0765
  Py  C    3    0.1038   -0.1421    0.1192    0.0762   -0.2189   -0.1014    0.0903   -0.1986
  Pz  C    3   -0.0741    0.1208   -0.1029   -0.0991    0.3106    0.1021   -0.0191   -0.0614
  S   N    4    0.5988   -0.1657    0.0807    0.0790    0.5446   -0.1356   -0.1681    0.0023
  Px  N    4    0.3108   -0.0430   -0.0030   -0.0363   -0.1331    0.1910    0.1697   -0.0948
  Py  N    4    0.0345   -0.0373    0.0458    0.0663   -0.1537   -0.2956   -0.0916    0.0158
  Pz  N    4   -0.1029    0.0520   -0.0487   -0.0775    0.2030    0.2825    0.1108   -0.2263
  S   H    5    0.0170    0.1541    0.1552    0.2682   -0.0425    0.2153   -0.3099    0.0887
  S   H    6    0.0108    0.1490    0.1666    0.2987    0.0424    0.0872    0.3089    0.1698
  S   C    7    0.0192    0.2328    0.5667   -0.3954    0.0219   -0.0482   -0.0037    0.0053
  Px  C    7   -0.0087   -0.0499    0.0084   -0.0506    0.0393    0.0496    0.1552    0.5564
  Py  C    7   -0.0065   -0.0801   -0.0637   -0.2410   -0.0072   -0.1167   -0.1435    0.1362
  Pz  C    7   -0.0015   -0.0090   -0.0211   -0.0515    0.0403   -0.1374    0.4091   -0.0917
  S   H    8    0.0081    0.0963    0.2391   -0.2350    0.0339   -0.1216    0.2440   -0.0393
  S   H    9    0.0125    0.0982    0.2342   -0.2425   -0.0270   -0.0483   -0.2441   -0.1232
  S   H   10    0.0053    0.0814    0.2600   -0.2165    0.0241    0.0232   -0.0095    0.3976
  S   C   11    0.3771   -0.0994    0.0691    0.0761   -0.4950   -0.2899   -0.0150    0.1384
  Px  C   11   -0.0621    0.0507   -0.0351   -0.0614   -0.2204    0.2176    0.1421   -0.1159
  Py  C   11   -0.1658    0.0220   -0.0022    0.0042    0.0299   -0.0706   -0.0228   -0.0218
  Pz  C   11    0.2011   -0.0345    0.0127   -0.0002    0.0116    0.0259    0.0207   -0.0903


   Root No.       9        10        11        12        13        14        15        16

                 9 A      10 A      11 A      12 A      13 A      14 A      15 A      16 A   

               -14.672   -14.299   -13.657   -12.831   -12.212   -11.177   -10.319    -9.799
  
  S   C    1    0.0251   -0.0378    0.0200   -0.0004   -0.0112    0.0087    0.0763    0.0094
  Px  C    1    0.2557   -0.0692    0.0170    0.3026    0.2451   -0.0492   -0.2706   -0.0301
  Py  C    1    0.3005   -0.3201   -0.2734   -0.1810    0.0739   -0.0119   -0.0501   -0.0761
  Pz  C    1    0.0620   -0.1054   -0.1627    0.3195   -0.2520    0.0380    0.1434   -0.0813
  S   S    2   -0.0282    0.0800   -0.2211   -0.0424    0.2121   -0.0406   -0.2050   -0.0011
  Px  S    2   -0.2218    0.1163   -0.1479   -0.1522   -0.3234    0.0333    0.1102    0.1243
  Py  S    2    0.2568    0.0035    0.1728    0.0268   -0.2218    0.0522    0.2174    0.6550
  Pz  S    2    0.1122    0.1679   -0.2134    0.0488    0.3241   -0.0691   -0.3132    0.5563
  x2  S    2   -0.0450   -0.0122   -0.0025    0.0004   -0.0428    0.0158    0.1396   -0.0049
  xz  S    2    0.0428   -0.0516    0.0381    0.0604    0.0159   -0.0040   -0.0151   -0.0321
  z2  S    2   -0.0124   -0.0204    0.0012   -0.0131    0.0157   -0.0075   -0.0786   -0.0062
  yz  S    2   -0.0301    0.0233   -0.0428   -0.0142    0.0477   -0.0065   -0.0098   -0.0013
  xy  S    2   -0.0384   -0.0141   -0.0633   -0.0434    0.0073   -0.0029   -0.0385   -0.0286
  S   C    3   -0.0001   -0.0226    0.0942    0.0490   -0.1384    0.0084   -0.0342   -0.0034
  Px  C    3    0.2599   -0.0763    0.3001    0.0917   -0.3119    0.0174   -0.2388    0.0070
  Py  C    3    0.1236    0.4170   -0.0891   -0.1160   -0.0936   -0.0147   -0.2951    0.0776
  Pz  C    3    0.3262    0.2531    0.1225    0.0461    0.1656    0.0126    0.3816    0.0799
  S   N    4    0.0842   -0.0670    0.1401    0.0189   -0.1865    0.2466   -0.1871   -0.0038
  Px  N    4   -0.1199    0.1726   -0.2000   -0.0694    0.2261   -0.3474    0.3376   -0.0422
  Py  N    4    0.4115    0.2999    0.1806    0.0008   -0.0327   -0.2698    0.0438   -0.2821
  Pz  N    4    0.0659    0.4023   -0.0515   -0.1009   -0.0218    0.3795   -0.0999   -0.2493
  S   H    5   -0.0751    0.0967    0.1737   -0.2240    0.1802   -0.0227   -0.0746    0.0957
  S   H    6   -0.0106    0.0813    0.1062    0.3529   -0.0128   -0.0001   -0.0199    0.0048
  S   C    7   -0.0023   -0.0288   -0.0290   -0.0011    0.0219   -0.0066   -0.0088   -0.0539
  Px  C    7    0.1020    0.1032   -0.1585   -0.3515   -0.2389    0.0377    0.0871    0.0732
  Py  C    7   -0.4011    0.3487    0.2300    0.2061   -0.0444    0.0014    0.0430    0.1007
  Pz  C    7   -0.0865   -0.1041    0.4657   -0.3528    0.1708   -0.0076   -0.0456    0.0041
  S   H    8   -0.1199   -0.0314    0.3573   -0.2356    0.1413   -0.0106   -0.0413    0.0031
  S   H    9   -0.2039    0.1529    0.0196    0.3854    0.0294   -0.0110   -0.0142   -0.0075
  S   H   10    0.0424    0.1198   -0.2127   -0.1410   -0.2182    0.0287    0.0884    0.0460
  S   C   11    0.1019   -0.0194   -0.0097    0.0500    0.2694    0.4478    0.1876    0.0035
  Px  C   11   -0.1335    0.1219   -0.1174   -0.0625   -0.0591    0.3201   -0.2871   -0.0345
  Py  C   11    0.1975    0.2092    0.0426   -0.0010    0.1600    0.3171    0.2123   -0.1524
  Pz  C   11    0.1050    0.2004    0.0418   -0.0478   -0.1758   -0.4237   -0.1709   -0.1432


   Root No.      17        18        19        20        21        22        23        24

                17 A      18 A      19 A      20 A      21 A      22 A      23 A      24 A   

                -0.937    -0.224    -0.125     0.778     1.648     2.096     2.285     2.340
  
  S   C    1   -0.0077    0.1149   -0.1931    0.0009   -0.0744    0.0318    0.0847    0.0161
  Px  C    1    0.0038   -0.3041    0.3755   -0.0003    0.1717    0.0273   -0.2586   -0.0139
  Py  C    1   -0.0020   -0.0265    0.0639   -0.0004   -0.0011    0.0935   -0.0668    0.0183
  Pz  C    1    0.0007    0.0872   -0.1582   -0.0013   -0.0581    0.0337    0.0981    0.0215
  S   S    2    0.0010   -0.1632    0.0495    0.0000    0.0569    0.0041   -0.0910   -0.0060
  Px  S    2   -0.0452    0.0761    0.6212    0.0016    0.1026    0.0003   -0.0690   -0.0142
  Py  S    2   -0.2501   -0.4366   -0.0312    0.0096    0.0470    0.0114   -0.0711   -0.0437
  Pz  S    2   -0.2345    0.4743   -0.0838    0.0089   -0.0712    0.0019    0.1159   -0.0243
  x2  S    2   -0.1365    0.1671   -0.2995    0.0211    0.5299   -0.1146   -0.4461    0.4661
  xz  S    2   -0.1133    0.1448    0.3803    0.0149    0.2203    0.4300    0.2860    0.4758
  z2  S    2   -0.1596   -0.0992    0.1149    0.0268   -0.4171   -0.5981    0.0250    0.5968
  yz  S    2   -0.0008   -0.3166   -0.0835    0.0013    0.3585   -0.2026    0.7419    0.0666
  xy  S    2   -0.0886   -0.2495   -0.2423    0.0117   -0.3574    0.6015    0.0113    0.3492
  S   C    3   -0.0048    0.3119    0.0741   -0.0000   -0.0462   -0.0108    0.1558    0.0029
  Px  C    3    0.0972    0.2067    0.1011   -0.0066   -0.1648   -0.0076    0.0027    0.0275
  Py  C    3    0.5579   -0.1722   -0.0720   -0.0373   -0.0276    0.0022   -0.0535    0.1717
  Pz  C    3    0.4858    0.1704    0.0578   -0.0325    0.0595    0.0023    0.0365    0.1625
  S   N    4    0.0001   -0.0018    0.0295   -0.0000   -0.0384    0.0001   -0.0333   -0.0019
  Px  N    4   -0.0623   -0.0666    0.1472   -0.0642   -0.1821   -0.0027   -0.0894   -0.0184
  Py  N    4   -0.3478    0.0281   -0.0588   -0.3540    0.0941   -0.0010    0.0284   -0.0554
  Pz  N    4   -0.3054   -0.0272    0.0377   -0.3121   -0.0672   -0.0053   -0.0066   -0.0554
  S   H    5   -0.0296    0.0419    0.0149    0.0009    0.0381    0.0747    0.0248    0.0200
  S   H    6   -0.0036   -0.0718   -0.0341   -0.0008   -0.0852    0.0135   -0.0071    0.0004
  S   C    7    0.0188    0.0173   -0.0024   -0.0038    0.0160   -0.0665    0.0151   -0.0138
  Px  C    7   -0.0097   -0.0003   -0.0115    0.0042   -0.0075    0.0397   -0.0219    0.0096
  Py  C    7   -0.0376   -0.0300   -0.0014   -0.0026   -0.0267    0.1281   -0.0420    0.0262
  Pz  C    7    0.0014   -0.0107    0.0009    0.0028   -0.0073    0.0268   -0.0077    0.0058
  S   H    8    0.0019   -0.0071    0.0155    0.0001    0.0107   -0.0096   -0.0137   -0.0035
  S   H    9    0.0014   -0.0135    0.0103    0.0032    0.0101   -0.0086   -0.0106    0.0002
  S   H   10   -0.0066    0.0380   -0.0545    0.0008   -0.0337    0.0079    0.0538    0.0021
  S   C   11   -0.0005    0.0335   -0.0047   -0.0003    0.0457    0.0019    0.0027    0.0028
  Px  C   11   -0.0250   -0.0332   -0.1133    0.1180    0.2246    0.0125   -0.0566   -0.0014
  Py  C   11   -0.1451    0.0026    0.0890    0.6514   -0.1457   -0.0042    0.0190   -0.0588
  Pz  C   11   -0.1274   -0.0001   -0.0761    0.5751    0.1205    0.0073   -0.0020   -0.0420


   Root No.      25        26        27        28        29        30        31        32

                25 A      26 A      27 A      28 A      29 A      30 A      31 A      32 A   

                 2.758     3.287     3.344     3.513     4.454     4.515     5.042     5.275
  
  S   C    1    0.0651   -0.0302   -0.0301    0.2631   -0.0026   -0.0556   -0.3882   -0.3397
  Px  C    1   -0.1773    0.0234   -0.1879    0.0387   -0.0239   -0.2329   -0.0859   -0.2147
  Py  C    1   -0.0197   -0.0388   -0.2099    0.5581    0.0170    0.1976    0.1356    0.1624
  Pz  C    1    0.0519   -0.0047    0.0141    0.1759   -0.0605   -0.4984    0.1114    0.0576
  S   S    2   -0.0051   -0.0421    0.0552    0.0107   -0.0054    0.0006    0.0024   -0.0066
  Px  S    2   -0.1560    0.0212   -0.2894   -0.1183    0.0023    0.0323    0.0490    0.0141
  Py  S    2    0.0931   -0.0673    0.1139   -0.0313    0.0046   -0.0171   -0.0050    0.0007
  Pz  S    2   -0.0714    0.0774   -0.0485   -0.0108   -0.0028    0.0325   -0.0234   -0.0025
  x2  S    2   -0.3147    0.1339    0.0642    0.0201    0.0090    0.0550    0.0415    0.0101
  xz  S    2    0.2946   -0.1117    0.3918    0.0555    0.0070    0.0394   -0.0546   -0.0075
  z2  S    2    0.1565   -0.0975   -0.1231    0.0244   -0.0096   -0.0538   -0.0004   -0.0064
  yz  S    2   -0.2750    0.2503   -0.1231    0.0679    0.0086    0.0401    0.0004    0.0073
  xy  S    2   -0.2262    0.1116   -0.3247   -0.2731   -0.0011    0.0028   -0.0023   -0.0060
  S   C    3   -0.3636   -0.2893   -0.1816   -0.0679   -0.1744    0.0335    0.0082   -0.0007
  Px  C    3   -0.1297    0.5747    0.0790    0.0683    0.1195    0.0019   -0.0076   -0.0089
  Py  C    3   -0.1419   -0.1678    0.2962    0.0872   -0.0785    0.0023   -0.0079   -0.0061
  Pz  C    3    0.1775    0.0740   -0.3580   -0.1051    0.0643   -0.0042    0.0163    0.0064
  S   N    4    0.0489    0.2419    0.0481    0.0292   -0.1663    0.0228   -0.0033   -0.0063
  Px  N    4    0.0352    0.5400    0.2028    0.0925   -0.1143    0.0168   -0.0087   -0.0086
  Py  N    4    0.0830   -0.1163   -0.1314   -0.0514   -0.3446    0.0403    0.0022   -0.0023
  Pz  N    4   -0.0982    0.0208    0.1093    0.0350    0.4147   -0.0495   -0.0036    0.0065
  S   H    5   -0.0141    0.0121   -0.0001    0.0929   -0.0597   -0.4594    0.3802    0.2815
  S   H    6    0.0447   -0.0265   -0.0088    0.1004    0.0581    0.5480    0.3289    0.3805
  S   C    7    0.0006    0.0108    0.0837   -0.2267    0.0057    0.0026    0.0283    0.0566
  Px  C    7   -0.0093   -0.0047   -0.0793    0.1803   -0.0185   -0.0824   -0.4081    0.4389
  Py  C    7   -0.0061   -0.0455   -0.2017    0.5554    0.0100    0.0408   -0.0105   -0.2300
  Pz  C    7    0.0044   -0.0032   -0.0320    0.1153   -0.0250   -0.1656    0.2362    0.0421
  S   H    8   -0.0106    0.0033    0.0082   -0.0680    0.0245    0.1967   -0.2888   -0.0456
  S   H    9   -0.0108    0.0157    0.0111   -0.0721   -0.0368   -0.2069   -0.1733    0.3984
  S   H   10    0.0353   -0.0004    0.0529   -0.0418    0.0048    0.0160    0.4620   -0.4151
  S   C   11    0.1029    0.0209   -0.1085   -0.0311    0.3720   -0.0433    0.0039    0.0059
  Px  C   11    0.5026    0.2297   -0.2726   -0.0737   -0.3862    0.0475    0.0048   -0.0103
  Py  C   11   -0.2524   -0.0232    0.1772    0.0532   -0.3278    0.0411   -0.0034   -0.0086
  Pz  C   11    0.1857   -0.0216   -0.1440   -0.0438    0.4513   -0.0544    0.0051    0.0081


   Root No.      33        34

                33 A      34 A   

                 5.315     6.152
  
  S   C    1    0.1923   -0.0160
  Px  C    1    0.0087   -0.0253
  Py  C    1   -0.0058   -0.1086
  Pz  C    1   -0.2788   -0.0245
  S   S    2    0.0046    0.0017
  Px  S    2    0.0044    0.0007
  Py  S    2   -0.0049    0.0144
  Pz  S    2    0.0219    0.0078
  x2  S    2    0.0092   -0.0058
  xz  S    2    0.0266    0.0088
  z2  S    2   -0.0173   -0.0045
  yz  S    2    0.0093   -0.0020
  xy  S    2    0.0019    0.0164
  S   C    3    0.0043    0.0018
  Px  C    3    0.0019    0.0078
  Py  C    3   -0.0043    0.0029
  Pz  C    3   -0.0038   -0.0010
  S   N    4   -0.0015    0.0036
  Px  N    4   -0.0011    0.0042
  Py  N    4   -0.0001    0.0003
  Pz  N    4    0.0047   -0.0036
  S   H    5   -0.3557   -0.0083
  S   H    6   -0.0205   -0.0112
  S   C    7   -0.0125    0.6256
  Px  C    7    0.0744    0.0536
  Py  C    7   -0.0848    0.2273
  Pz  C    7    0.5542    0.0378
  S   H    8   -0.5221   -0.4220
  S   H    9    0.3798   -0.4474
  S   H   10    0.1397   -0.4000
  S   C   11    0.0004   -0.0010
  Px  C   11   -0.0079    0.0083
  Py  C   11   -0.0025    0.0050
  Pz  C   11   -0.0006   -0.0014

           SUPERDELOCALIZABILITIES

 Mulliken electronegativity:        5.367916
 Parr & Pople absolute hardness:    4.430851
 Schuurmann MO shift alpha:        -5.367916
 
 Ehomo:                            -9.798767
 Elumo:                            -0.937065


  a   n        Dn(r)        De(r)   q(r) - Z(r)

  C   1    -0.449350    -0.416385    -4.292646
  S   2    -1.800036    -0.747367    -5.767831
  C   3    -1.093439    -0.018398    -0.125297
  N   4    -0.701941    -0.301237    -3.214942
  C   7    -0.473834    -0.527057    -4.322732
  C  11    -0.399554    -0.408343    -3.878263

 Total:    -4.918154    -2.418788

  a   n        piS(r)

  C   1    -0.203312
  S   2    -0.243718
  C   3    -0.230034
  N   4    -0.198778
  C   7    -0.185186
  C  11    -0.208974

 Total:    -1.270002

  a   n       homo-1         homo         lumo       lumo+1

  C   1    10.209224     1.340258     0.007817    11.400442
  S   2    22.697191    75.591353    18.441917    66.917545
  C   3     2.597832     0.109688     5.694545    15.899703
  N   4    14.672616     0.689839    32.861568    23.194409
  C   7    13.145938    15.266131    21.894941     0.772372
  C  11     0.584022     1.021906     0.142168     0.125001


              NET ATOMIC CHARGES AND DIPOLE CONTRIBUTIONS

  ATOM NO.   TYPE          CHARGE      No. of ELECS.   s-Pop       p-Pop       d-Pop       
    1          C          -0.292646        4.2926     1.10762     3.18503
    2          S           0.232169        5.7678     1.90861     3.70301     0.15621
    3          C          -0.221376        4.2214     1.17107     3.05030
    4          N          -0.300808        5.3008     1.80841     3.49240
    5          H           0.169667        0.8303     0.83033
    6          H           0.167791        0.8322     0.83221
    7          C          -0.455454        4.4555     1.08018     3.37528
    8          H           0.161777        0.8382     0.83822
    9          H           0.167238        0.8328     0.83276
   10          H           0.159906        0.8401     0.84009
   11          C           0.211736        3.7883     1.66543     2.12283
 DIPOLE           X         Y         Z       TOTAL
 POINT-CHG.     4.401    -0.408    -0.140     4.422
 HYBRID         0.234    -0.912     1.059     1.417
 SUM            4.636    -1.320     0.919     4.907


          ATOMIC ORBITAL ELECTRON POPULATIONS

     Atom    s        px        py        pz      x^2-y^2     xz        z^2       yz        xy
    1  C   1.10762   0.98279   1.05654   1.14570
    2  S   1.90861   0.92922   1.41744   1.35635   0.05316   0.03685   0.01828   0.01701   0.03092
    3  C   1.17107   1.07413   0.93883   1.03735
    4  N   1.80841   1.13668   1.15208   1.20364
    5  H   0.83033
    6  H   0.83221
    7  C   1.08018   1.16800   1.02641   1.18087
    8  H   0.83822
    9  H   0.83276
   10  H   0.84009
   11  C   1.66543   0.76188   0.62782   0.73314

          BONDING CONTRIBUTION OF EACH M.O.

  1.6490  1.1840  1.7405  1.9549  0.6987  1.5329  1.8363  1.8432  1.9758  2.1122
  1.7496  1.9471  1.2917  0.6291  1.3544  0.8967 -1.7571 -1.3370 -1.0247 -1.0804
 -0.5381 -0.0880 -0.4608 -0.1525 -1.3491 -1.6823 -1.5372 -1.8494 -1.8458 -1.9145
 -1.9357 -1.9568 -1.9689 -1.9176





            (VALENCIES)   BOND ORDERS

     1  C     (3.943)     7  C 1.011     2  S 0.994     5  H 0.959     6  H 0.951     4  N 0.011     3  C 0.011
 
     2  S     (2.524)     3  C 1.313     1  C 0.994     4  N 0.120    11  C 0.063
 
     3  C     (3.755)     4  N 1.420     2  S 1.313    11  C 1.002     1  C 0.011
 
     4  N     (2.937)     3  C 1.420    11  C 1.384     2  S 0.120     1  C 0.011
 
     5  H     (0.971)     1  C 0.959
 
     6  H     (0.972)     1  C 0.951
 
     7  C     (3.917)     1  C 1.011     8  H 0.967     9  H 0.965    10  H 0.963
 
     8  H     (0.974)     7  C 0.967
 
     9  H     (0.972)     7  C 0.965
 
    10  H     (0.974)     7  C 0.963
 
    11  C     (2.455)     4  N 1.384     3  C 1.002     2  S 0.063
 




 SELF-Q:    SELF OR INACTIVE CHARGE
 ACTIV-Q:   CHARGE WHICH IS USED TO FORM BONDS
 TOTAL-Q:   SELF-Q + ACTIV-Q
 FREE-VA:   TOTAL-Q - VALENCE
 STAT.PROM: TOTAL-Q - CORE CHARGE
 MULL.PROM: -CHARGE (SEE ABOVE)

       SELF-Q    ACTIV-Q   TOTAL-Q   VALENCE   FREE-VA STAT.PROM MULL.PROM


   1   0.34919   3.94346   4.29265   3.94346   0.00000   0.29265   0.29265

   2   3.24393   2.52390   5.76783   2.52390  -0.00000  -0.23217  -0.23217

   3   0.46598   3.75539   4.22138   3.75539  -0.00000   0.22138   0.22138

   4   2.36357   2.93723   5.30081   2.93723  -0.00000   0.30081   0.30081

   5  -0.14088   0.97121   0.83033   0.97121   0.00000  -0.16967  -0.16967

   6  -0.13964   0.97185   0.83221   0.97185  -0.00000  -0.16779  -0.16779

   7   0.53798   3.91747   4.45545   3.91747  -0.00000   0.45545   0.45545

   8  -0.13560   0.97383   0.83822   0.97383  -0.00000  -0.16178  -0.16178

   9  -0.13927   0.97203   0.83276   0.97203  -0.00000  -0.16724  -0.16724

  10  -0.13434   0.97443   0.84009   0.97443  -0.00000  -0.15991  -0.15991

  11   1.33304   2.45522   3.78826   2.45522  -0.00000  -0.21174  -0.21174

 CLOSED SHELL





          TOTAL ENERGY PARTITIONING

          ALL ENERGIES ARE IN ELECTRON VOLTS

            ONE-CENTER TERMS 
          E-E:  ELECTRON-ELECTRON REPULSION
          E-N:  ELECTRON-NUCLEAR ATTRACTION


   ATOM      E-E       E-N    (E-E + E-N)
   C   1    83.5240 -183.7912 -100.2672
   S   2    80.4664 -243.0761 -162.6096
   C   3    80.8146 -181.6524 -100.8378
   N   4   115.4925 -278.7450 -163.2525
   H   5     2.4904   -9.3387   -6.8483
   H   6     2.5017   -9.3598   -6.8581
   C   7    89.5851 -189.9874 -100.4023
   H   8     2.5380   -9.4275   -6.8895
   H   9     2.5050   -9.3660   -6.8610
   H  10     2.5493   -9.4485   -6.8992
   C  11    64.6641 -169.8678 -105.2037

              TWO-CENTER TERMS
           
          J:   RESONANCE ENERGY          E-E: ELECTRON-ELECTRON REPULSION
          K:   EXCHANGE ENERGY           E-N: ELECTRON-NUCLEAR ATTRACTION
                                         N-N: NUCLEAR-NUCLEAR REPULSION
          C:   COULOMBIC INTERACTION = E-E + E-N + N-N
          EE:  TOTAL OF ELECTRONIC AND NUCLEAR ENERGIES


     ATOM          J        K       E-E       E-N      N-N      C        EE
     PAIR
 
  S    2  C    1   -9.2497  -4.3735 153.9518 -308.2705 157.0773  2.7586 -10.8646
 
  C    3  C    1    0.1338  -0.0317  89.1554 -167.2229  78.4800  0.4125   0.5145
  C    3  S    2  -14.0981  -5.9896 161.1307 -326.4209 170.4950  5.2047 -14.8830
 
  N    4  C    1   -0.0046  -0.0210  76.2112 -143.7957  67.8216  0.2370   0.2114
  N    4  S    2    0.1003  -0.2670 137.9122 -276.0723 137.9499 -0.2103  -0.3770
  N    4  C    3  -16.4281  -7.0370 172.6127 -336.0250 171.0177  7.6054 -15.8596
 
  H    5  C    1  -11.2023  -5.3209  33.2787  -71.5715  42.7469  4.4541 -12.0691
  H    5  S    2    0.0171  -0.0138  24.7816  -55.8697  31.4938  0.4056   0.4089
  H    5  C    3    0.0121  -0.0029  16.3798  -35.1125  18.5317 -0.2010  -0.1918
  H    5  N    4   -0.0002  -0.0007  14.3958  -31.0617  16.5286 -0.1373  -0.1381
 
  H    6  C    1  -11.1221  -5.2726  33.2986  -71.5447  42.6825  4.4364 -11.9582
  H    6  S    2   -0.0577  -0.0292  25.4607  -57.2461  32.2183  0.4328   0.3459
  H    6  C    3   -0.0089  -0.0106  13.3795  -28.6882  15.1537 -0.1549  -0.1744
  H    6  N    4    0.0001  -0.0004  12.3169  -26.5102  14.0710 -0.1224  -0.1227
  H    6  H    5   -0.0697  -0.0024   4.8787  -11.7381   7.1437  0.2844   0.2122

   ATOM          J        K       E-E       E-N      N-N      C        EE
   PAIR
  C    7  C    1  -12.0326  -5.2509 144.1934 -267.9760 128.9601  5.1775 -12.1060
  C    7  S    2    0.0906  -0.0213 119.8725 -233.6590 113.3215 -0.4650  -0.3956
  C    7  C    3    0.0069  -0.0045  79.7096 -146.6401  67.4126  0.4820   0.4845
  C    7  N    4   -0.0000  -0.0015  72.6782 -134.5171  62.1896  0.3507   0.3492
  C    7  H    5    0.0158  -0.0005  21.9913  -46.3404  24.0409 -0.3083  -0.2930
  C    7  H    6    0.0117  -0.0006  21.9886  -46.2744  23.9797 -0.3060  -0.2950

   ATOM          J        K       E-E       E-N      N-N      C        EE
   PAIR
  H    8  C    1    0.0149  -0.0006  21.3466  -45.4326  23.9421 -0.1439  -0.1296
  H    8  S    2    0.0060  -0.0014  21.6331  -48.3457  26.9114  0.1988   0.2035
  H    8  C    3   -0.0001  -0.0000  13.6031  -29.0576  15.3052 -0.1494  -0.1495
  H    8  N    4    0.0000  -0.0000  12.9593  -27.7838  14.7019 -0.1227  -0.1227
  H    8  H    5   -0.0169  -0.0092   3.0728   -7.3666   4.4152  0.1214   0.0953
  H    8  H    6    0.0054  -0.0002   3.6487   -8.7372   5.2354  0.1469   0.1522
  H    8  C    7  -11.2699  -5.3767  34.9196  -73.5996  43.0487  4.3688 -12.2778

   ATOM          J        K       E-E       E-N      N-N      C        EE
   PAIR
  H    9  C    1    0.0087  -0.0005  21.2518  -45.3930  23.9896 -0.1516  -0.1433
  H    9  S    2    0.0129  -0.0011  20.9266  -47.0640  26.3588  0.2214   0.2332
  H    9  C    3   -0.0105  -0.0008  16.4914  -35.2920  18.6016 -0.1991  -0.2104
  H    9  N    4    0.0001  -0.0000  15.2002  -32.7511  17.4099 -0.1411  -0.1410
  H    9  H    5    0.0072  -0.0002   3.6578   -8.7976   5.2957  0.1559   0.1628
  H    9  H    6   -0.0169  -0.0092   3.0578   -7.3461   4.4124  0.1240   0.0980
  H    9  C    7  -11.2268  -5.3596  34.6699  -73.3352  42.9881  4.3228 -12.2636
  H    9  H    8   -0.0726  -0.0026   4.9464  -11.8408   7.1716  0.2772   0.2020

   ATOM          J        K       E-E       E-N      N-N      C        EE
   PAIR
  H   10  C    1   -0.0175  -0.0024  21.5529  -45.8002  24.1115 -0.1358  -0.1557
  H   10  S    2   -0.0170  -0.0170  17.5651  -39.2768  21.8658  0.1540   0.1199
  H   10  C    3    0.0001  -0.0002  11.7601  -25.0658  13.1738 -0.1319  -0.1320
  H   10  N    4   -0.0000  -0.0001  11.3476  -24.3005  12.8474 -0.1056  -0.1057
  H   10  H    5    0.0031  -0.0000   3.6914   -8.8396   5.2976  0.1494   0.1524
  H   10  H    6    0.0051  -0.0001   3.7096   -8.8732   5.3120  0.1484   0.1533
  H   10  C    7  -11.2019  -5.3464  34.9535  -73.5948  43.0008  4.3594 -12.1888
  H   10  H    8   -0.0800  -0.0031   5.0017  -11.9208   7.1897  0.2706   0.1876
  H   10  H    9   -0.0862  -0.0036   4.9740  -11.8937   7.1973  0.2776   0.1878

   ATOM          J        K       E-E       E-N      N-N      C        EE
   PAIR
  C   11  C    1    0.0075  -0.0091  59.5551 -119.1118  59.2954 -0.2614  -0.2631
  C   11  S    2    0.0794  -0.1317  90.9562 -193.8564 103.3373  0.4371   0.3847
  C   11  C    3  -10.9854  -4.8545 119.7255 -246.2886 131.2268  4.6637 -11.1763
  C   11  N    4  -16.2134  -6.8884 152.3619 -315.6628 170.2688  6.9679 -16.1339
  C   11  H    5   -0.0012  -0.0004  11.8912  -26.9465  15.2053  0.1500   0.1485
  C   11  H    6   -0.0000  -0.0001   9.1785  -20.8185  11.7631  0.1232   0.1231
  C   11  C    7   -0.0002  -0.0005  59.5864 -116.7134  56.7608 -0.3662  -0.3669
  C   11  H    8   -0.0001  -0.0000   9.9862  -22.5383  12.6754  0.1233   0.1232
  C   11  H    9   -0.0036  -0.0003  13.5283  -30.5175  17.1389  0.1497   0.1459
  C   11  H   10    0.0001  -0.0001   9.3676  -21.0447  11.7773  0.1002   0.1002
 

                    Total contribution from hydrogen bonds:         0.000 disp.:    0.000 Tot:     0.000 kcal/mol




***  SUMMARY OF ENERGY PARTITION  ***
 ---------------------------------------
     ONE-CENTER TERMS

 ELECTRON-NUCLEAR  (ONE-ELECTRON)        -1294.0605 EV
 ELECTRON-ELECTRON (TWO-ELECTRON)          527.1312 EV

 TOTAL OF ONE-CENTER TERMS                -766.9292 EV
 ---------------------------------------
     TWO-CENTER TERMS

 RESONANCE ENERGY                         -134.9556 EV
 EXCHANGE ENERGY                           -61.6725 EV

 EXCHANGE + RESONANCE ENERGY:             -196.6281 EV

 ELECTRON-ELECTRON REPULSION              2311.6555 EV
 ELECTRON-NUCLEAR ATTRACTION             -4687.7640 EV
 NUCLEAR-NUCLEAR REPULSION                2432.5482 EV

 TOTAL ELECTROSTATIC INTERACTION            56.4398 EV

 GRAND TOTAL OF TWO-CENTER TERMS          -140.1884 EV
 ---------------------------------------
 ETOT (EONE + ETWO)                       -907.1176 EV


 ******************** TDHF POLARIZABILITIES ********************



          MOLECULAR WEIGHT =   99.15



          ROTATIONAL CONSTANTS IN CM(-1)

          A =    0.20076625   B =    0.06727455   C =    0.05443973



           PRINCIPAL MOMENTS OF INERTIA IN UNITS OF 10**(-40)*GRAM-CM**2

          A =      139.4296   B =      416.0972   C =      514.1971


 ROTATION MATRIX FOR ORIENTATION OF MOLECULE:

         0.964848    0.235132   -0.117393
        -0.141712    0.841663    0.521077
         0.221327   -0.486124    0.845398


          CARTESIAN COORDINATES 

    NO.       ATOM         X         Y         Z

     1         C        1.7161   -0.0022   -0.5335
     2         S        0.3254   -0.9910    0.0975
     3         C       -0.9711   -0.0092   -0.0339
     4         N       -2.3114   -0.0008    0.2085
     5         H        1.5030    0.3570   -1.5602
     6         H        2.5712   -0.7060   -0.6138
     7         C        2.0279    1.1486    0.3948
     8         H        2.2348    0.8194    1.4223
     9         H        1.2036    1.8762    0.4446
    10         H        2.9142    1.7040    0.0539
    11         C       -1.8209    1.1688   -0.3096


 ENERGY OF "REORIENTED" SYSTEM WITHOUT FIELD:      123.0561288375


  NFREQ=  3  IWFLB=  0  IBET=  1  IGAM=  1
  ATOL= 0.10000D-02  BTOL= 0.10000D-02    MAXITU=  500    MAXITA=  150


 *****************************************************************
 CALCULATION OF STATIC FIELD QUANTITIES
 *****************************************************************

 +++++ ALPHA AT       0.00000 EV.

                           COMPONENTS OF ALPHA

                     *X           *Y           *Z
           *=X:     112.2736     -19.6441       0.1627
           *=Y:     -19.6421      82.2503     -10.9278
           *=Z:       0.1734     -10.9407      58.8945

  ISOTROPIC AVERAGE ALPHA =      84.47282 A.U. =     12.51758 ANG.**3

 +++++ BETA (SECOND HARMONIC GENERATION) AT       0.00000 EV.

                              COMPONENTS OF BETA
            *XX         *XY         *YY         *XZ         *YZ         *ZZ
   *=X  -969.48524   578.16182  -297.79836  -530.43148   330.86255  -276.72449
   *=Y   579.55749  -298.55393   153.54359   331.46538  -184.84182   180.05983
   *=Z  -532.10804   331.85565  -185.14018  -277.57394   180.35577  -129.50288


 AVERAGE BETAX(SHG) VALUE AT   0.00000 EV =       -927.0469 a.u. = -0.800915E-29 ESU
 AVERAGE BETAY(SHG) VALUE AT   0.00000 EV =        547.4567 a.u. =  0.472971E-29 ESU
 AVERAGE BETAZ(SHG) VALUE AT   0.00000 EV =       -507.2607 a.u. = -0.438244E-29 ESU



 AVERAGE BETA (SHG) VALUE AT   0.00000 EV =       1190.1420 a.u. =  0.102821E-28 ESU
   (1 a.u. = 8.639418X10-33 esu)



 +++++ ALPHA AT       0.00000 EV.

                           COMPONENTS OF ALPHA

                     *X           *Y           *Z
           *=X:     112.2733     -19.6441       0.1627
           *=Y:     -19.6416      82.2503     -10.9278
           *=Z:       0.1731     -10.9407      58.8945

  ISOTROPIC AVERAGE ALPHA =      84.47271 A.U. =     12.51756 ANG.**3


 GAMMA (THIRD HARMONIC GENERATION) AT    0.00000 EV.


 GAMMA(X,X,X,X) =        443085.59521
 GAMMA(Y,Y,Y,Y) =         82550.51138
 GAMMA(Z,Z,Z,Z) =         19145.49153
 GAMMA(X,X,Y,Y) =        181902.70056
 GAMMA(X,X,Z,Z) =         91363.81548
 GAMMA(Y,Y,X,X) =        181912.50199
 GAMMA(Y,Y,Z,Z) =         39945.56197
 GAMMA(Z,Z,X,X) =         91370.45095
 GAMMA(Z,Z,Y,Y) =         39946.30447


 AVERAGE GAMMA VALUE AT    0.00000 =        234244.58671 a.u. =       117982.03142 ESU (X10-39)




 **********************************************************************
 CALCULATION FOR A FREQUENCY OF    0.25000 EV  =       0.00919 A.U. 
                  WAVELENGTH OF    4959.37 NM  =    2016.38525 CM(-1)
 **********************************************************************

 +++++ ALPHA AT       0.25000 EV.

                           COMPONENTS OF ALPHA

                     *X           *Y           *Z
           *=X:     112.4652     -19.7624       0.1980
           *=Y:     -19.7616      82.3594     -10.9662
           *=Z:       0.2117     -10.9815      58.9317

  ISOTROPIC AVERAGE ALPHA =      84.58540 A.U. =     12.53426 ANG.**3

 +++++ BETA (SECOND HARMONIC GENERATION) AT       0.25000 EV.

                              COMPONENTS OF BETA
            *XX         *XY         *YY         *XZ         *YZ         *ZZ
   *=X -1005.34440   602.95178  -314.89657  -551.36407   345.69136  -287.40645
   *=Y   612.34369  -320.25432   169.26437   349.41872  -197.27347   189.01228
   *=Z  -552.87080   345.97252  -195.11794  -288.08538   188.00028  -134.44825


 AVERAGE BETAX(SHG) VALUE AT   0.25000 EV =       -967.0031 a.u. = -0.835434E-29 ESU
 AVERAGE BETAY(SHG) VALUE AT   0.25000 EV =        578.2106 a.u. =  0.499540E-29 ESU
 AVERAGE BETAZ(SHG) VALUE AT   0.25000 EV =       -529.7217 a.u. = -0.457649E-29 ESU



 AVERAGE BETA (SHG) VALUE AT   0.25000 EV =       1245.0011 a.u. =  0.107561E-28 ESU
   (1 a.u. = 8.639418X10-33 esu)



 +++++ ALPHA AT       0.75000 EV.

                           COMPONENTS OF ALPHA

                     *X           *Y           *Z
           *=X:     114.0477     -20.7550       0.5160
           *=Y:     -20.7531      83.2622     -11.3055
           *=Z:       0.5280     -11.3196      59.2458

  ISOTROPIC AVERAGE ALPHA =      85.51859 A.U. =     12.67255 ANG.**3


 GAMMA (THIRD HARMONIC GENERATION) AT    0.25000 EV.


 GAMMA(X,X,X,X) =        488664.41503
 GAMMA(Y,Y,Y,Y) =         94017.34933
 GAMMA(Z,Z,Z,Z) =         21146.10269
 GAMMA(X,X,Y,Y) =        202133.47482
 GAMMA(X,X,Z,Z) =        101071.83128
 GAMMA(Y,Y,X,X) =        206512.68605
 GAMMA(Y,Y,Z,Z) =         45402.03736
 GAMMA(Z,Z,X,X) =        100828.29845
 GAMMA(Z,Z,Y,Y) =         44325.90978


 AVERAGE GAMMA VALUE AT    0.25000 =        260820.42096 a.u. =       131367.48871 ESU (X10-39)




 **********************************************************************
 CALCULATION FOR A FREQUENCY OF    0.50000 EV  =       0.01837 A.U. 
                  WAVELENGTH OF    2479.68 NM  =    4032.77050 CM(-1)
 **********************************************************************

 +++++ ALPHA AT       0.50000 EV.

                           COMPONENTS OF ALPHA

                     *X           *Y           *Z
           *=X:     113.0432     -20.1233       0.3140
           *=Y:     -20.1195      82.6902     -11.0911
           *=Z:       0.3249     -11.1051      59.0478

  ISOTROPIC AVERAGE ALPHA =      84.92709 A.U. =     12.58490 ANG.**3

 +++++ BETA (SECOND HARMONIC GENERATION) AT       0.50000 EV.

                              COMPONENTS OF BETA
            *XX         *XY         *YY         *XZ         *YZ         *ZZ
   *=X -1125.77348   686.96899  -373.70629  -623.32478   397.01170  -324.77876
   *=Y   723.85934  -394.90309   223.81538   411.46916  -240.63731   220.39118
   *=Z  -621.54376   393.04992  -228.70718  -323.70251   214.03613  -151.54541


 AVERAGE BETAX(SHG) VALUE AT   0.50000 EV =      -1102.6033 a.u. = -0.952585E-29 ESU
 AVERAGE BETAY(SHG) VALUE AT   0.50000 EV =        683.5414 a.u. =  0.590540E-29 ESU
 AVERAGE BETAZ(SHG) VALUE AT   0.50000 EV =       -606.5623 a.u. = -0.524035E-29 ESU



 AVERAGE BETA (SHG) VALUE AT   0.50000 EV =       1432.0896 a.u. =  0.123724E-28 ESU
   (1 a.u. = 8.639418X10-33 esu)



 +++++ ALPHA AT       1.50000 EV.

                           COMPONENTS OF ALPHA

                     *X           *Y           *Z
           *=X:     120.5656     -25.1666       1.9922
           *=Y:     -25.1663      87.0517     -12.7853
           *=Z:       2.0052     -12.7988      60.4900

  ISOTROPIC AVERAGE ALPHA =      89.36909 A.U. =     13.24313 ANG.**3


 GAMMA (THIRD HARMONIC GENERATION) AT    0.50000 EV.


 GAMMA(X,X,X,X) =        676639.07556
 GAMMA(Y,Y,Y,Y) =        143137.18840
 GAMMA(Z,Z,Z,Z) =         29487.34918
 GAMMA(X,X,Y,Y) =        286605.34043
 GAMMA(X,X,Z,Z) =        142057.39110
 GAMMA(Y,Y,X,X) =        310848.33244
 GAMMA(Y,Y,Z,Z) =         68937.02654
 GAMMA(Z,Z,X,X) =        139434.22498
 GAMMA(Z,Z,Y,Y) =         62370.95128


 AVERAGE GAMMA VALUE AT    0.50000 =        371903.37598 a.u. =       187316.66933 ESU (X10-39)


 ******************** FINITE-FIELD POLARIZABILITIES ********************

    THE F-F METHOD IS PERFORMED USING BOTH AN ENERGY
    AND DIPOLE MOMENT EXPANSION.  THESE RESULTS ARE
    LISTED BELOW AS "H.o.F." AND "Dipole", RESPECTIVELY.

          MOLECULAR WEIGHT =   99.15



          ROTATIONAL CONSTANTS IN CM(-1)

          A =    0.20076625   B =    0.06727455   C =    0.05443973



           PRINCIPAL MOMENTS OF INERTIA IN UNITS OF 10**(-40)*GRAM-CM**2

          A =      139.4296   B =      416.0972   C =      514.1971


 ROTATION MATRIX FOR ORIENTATION OF MOLECULE:

         0.964848    0.235132   -0.117393
        -0.141712    0.841663    0.521077
         0.221327   -0.486124    0.845398


          CARTESIAN COORDINATES 

    NO.       ATOM         X         Y         Z

     1         C        1.7161   -0.0022   -0.5335
     2         S        0.3254   -0.9910    0.0975
     3         C       -0.9711   -0.0092   -0.0339
     4         N       -2.3114   -0.0008    0.2085
     5         H        1.5030    0.3570   -1.5602
     6         H        2.5712   -0.7060   -0.6138
     7         C        2.0279    1.1486    0.3948
     8         H        2.2348    0.8194    1.4223
     9         H        1.2036    1.8762    0.4446
    10         H        2.9142    1.7040    0.0539
    11         C       -1.8209    1.1688   -0.3096


 ENERGY OF "REORIENTED" SYSTEM WITHOUT FIELD:      123.05613 Kcal/mol


 APPLIED ELECTRIC FIELD MAGNITUDE:         0.10284 VOLTS PER ANGSTROM
    Step  1 of 36 done (+X)
    Step  2 of 36 done (-X)
    Step  3 of 36 done (+2X)
    Step  4 of 36 done (-2X)
    Step  5 of 36 done (+Y)
    Step  6 of 36 done (-Y)
    Step  7 of 36 done (+2Y)
    Step  8 of 36 done (-2Y)
    Step  9 of 36 done (+Y+X)
    Step 10 of 36 done (+Y-X)
    Step 11 of 36 done (-Y-X)
    Step 12 of 36 done (-Y+X)
    Step 13 of 36 done (+2Y+2X)
    Step 14 of 36 done (+2Y-2X)
    Step 15 of 36 done (-2Y-2X)
    Step 16 of 36 done (-2Y+2X)
    Step 17 of 36 done (+Z)
    Step 18 of 36 done (-Z)
    Step 19 of 36 done (+2Z)
    Step 20 of 36 done (-2Z)
    Step 21 of 36 done (+Z+X)
    Step 22 of 36 done (+Z-X)
    Step 23 of 36 done (-Z-X)
    Step 24 of 36 done (-Z+X)
    Step 25 of 36 done (+2Z+2X)
    Step 26 of 36 done (+2Z-2X)
    Step 27 of 36 done (-2Z-2X)
    Step 28 of 36 done (-2Z+2X)
    Step 29 of 36 done (+Z+Y)
    Step 30 of 36 done (+Z-Y)
    Step 31 of 36 done (-Z-Y)
    Step 32 of 36 done (-Z+Y)
    Step 33 of 36 done (+2Z+2Y)
    Step 34 of 36 done (+2Z-2Y)
    Step 35 of 36 done (-2Z-2Y)
    Step 36 of 36 done (-2Z+2Y)


 ****************************** DIPOLE ******************************


                     H.o.F.         Dipole

     X             -1.821957      -1.821889
     Y             -0.031399      -0.031397
     X              0.266871       0.266858


 MAGNITUDE:         1.841666       1.841597  (A.U.)
                    4.681048       4.680872  (DEBYE)


 ****************************** POLARIZABILITY ********************



 Polarizability Tensor from Heat of Formation:


                     1          2          3
 ------------------------------------------
          1 105.569964
          2 -12.919615  79.241651
          3  -4.666156  -8.174180  57.444737




    ROOT NO.    1           2           3

            53.21992    78.15634   110.88009
  
         1   0.17317     0.33080    -0.92768
         2   0.37239     0.84999     0.37262
         3   0.91177    -0.40999     0.02401

 Polarizability Tensor from Dipole Moment:


                     1          2          3
 ------------------------------------------
          1 105.555165
          2 -12.926452  79.235267
          3  -4.655976  -8.170153  57.442120




    ROOT NO.    1           2           3

            53.22148    78.14026   110.87081
  
         1   0.17310     0.33111    -0.92758
         2   0.37238     0.84989     0.37286
         3   0.91179    -0.40996     0.02382


 Average Polarizability from:     H.o.F         Dipole
                               80.752117      80.744184  A.U.
                               11.965849      11.964673  ANG.**3
                            2.393105D-23   2.392870D-23  ESU
 *******************************************************************************
 **                                                                           **
 **                              MOPAC v22.1.1                                **
 **                                                                           **
 *******************************************************************************
 **          Digital Object Identifier (DOI): 10.5281/zenodo.6511958          **
 **    Visit the DOI location for information on how to cite this program.    **
 *******************************************************************************

                              PM6 CALCULATION RESULTS

 *******************************************************************************
 *  CALCULATION DONE:                                Mon Apr 22 11:30:40 2024  *
 *  PM6        - The PM6 Hamiltonian to be used
 *  OLDGEO     - PREVIOUS GEOMETRY TO BE USED
 *  FORCE      - FORCE CALCULATION SPECIFIED
 *  T=         - A TIME OF 172800.0 SECONDS REQUESTED
 *  DUMP=N     - RESTART FILE WRITTEN EVERY 7200.0 SECONDS REQUESTED
 *  THERMO     - THERMODYNAMIC QUANTITIES TO BE CALCULATED
 *******************************************************************************
PM6 OLDGEO FORCE THERMO
 etscn
 All coordinates are Cartesian
   ATOM   CHEMICAL          X               Y               Z
  NUMBER   SYMBOL      (ANGSTROMS)     (ANGSTROMS)     (ANGSTROMS)
 
     1       C          0.86217687  *  -0.48989851  *  -0.49448867  *
     2       S         -0.52848997  *  -1.47869272  *   0.13655695  *
     3       C         -1.82495194  *  -0.49690376  *   0.00516548  *
     4       N         -3.16527721  *  -0.48850364  *   0.24756555  *
     5       H          0.64912138  *  -0.13071499  *  -1.52112612  *
     6       H          1.71728818  *  -1.19369910  *  -0.57481265  *
     7       C          1.17397642  *   0.66088627  *   0.43383592  *
     8       H          1.38095949  *   0.33168120  *   1.46135199  *
     9       H          0.34967610  *   1.38842653  *   0.48364055  *
    10       H          2.06034870  *   1.21631074  *   0.09292220  *
    11       C         -2.67482803  *   0.68110797  *  -0.27061119  *
 


          CARTESIAN COORDINATES 

    NO.       ATOM           X           Y           Z

     1         C          0.8622     -0.4899     -0.4945
     2         S         -0.5285     -1.4787      0.1366
     3         C         -1.8250     -0.4969      0.0052
     4         N         -3.1653     -0.4885      0.2476
     5         H          0.6491     -0.1307     -1.5211
     6         H          1.7173     -1.1937     -0.5748
     7         C          1.1740      0.6609      0.4338
     8         H          1.3810      0.3317      1.4614
     9         H          0.3497      1.3884      0.4836
    10         H          2.0603      1.2163      0.0929
    11         C         -2.6748      0.6811     -0.2706

 General Reference for PM6:
 "Optimization of Parameters for Semiempirical Methods V: Modification of NDDO Approximations
 and Application to 70 Elements", J. J. P. Stewart, J. Mol. Mod., 13, 1173-1213 (2007)
 URL: https://link.springer.com/article/10.1007/s00894-007-0233-4

           Empirical Formula: C4 H5 N S  =    11 atoms



      MOLECULAR POINT GROUP   :   C1  


      RHF CALCULATION, NO. OF DOUBLY OCCUPIED LEVELS = 16



          HEAT OF FORMATION =     123.056129 KCALS/MOLE


          CARTESIAN COORDINATE DERIVATIVES

   NUMBER  ATOM         X            Y            Z

     1       C     -0.003939    -0.002304    -0.000826
     2       S     -0.002061    -0.000327     0.000747
     3       C      0.001644    -0.003019     0.005196
     4       N      0.008215    -0.000637    -0.002099
     5       H      0.000957    -0.002501     0.001213
     6       H      0.000530     0.003647    -0.003342
     7       C     -0.001616     0.001156     0.013803
     8       H      0.004346    -0.007652    -0.007269
     9       H      0.003084     0.014623    -0.007837
    10       H     -0.002778    -0.004821     0.002286
    11       C     -0.008382     0.001836    -0.001871
 


          GRADIENT NORM =   0.02990

          MOLECULAR WEIGHT =   99.15



          ROTATIONAL CONSTANTS IN CM(-1)

          A =    0.20076625   B =    0.06727455   C =    0.05443973



           PRINCIPAL MOMENTS OF INERTIA IN UNITS OF 10**(-40)*GRAM-CM**2

          A =      139.4296   B =      416.0972   C =      514.1971


          ORIENTATION OF MOLECULE IN FORCE CALCULATION

    NO.       ATOM         X         Y         Z

     1          C      -1.4956   -0.9760    0.2000
     2          S       0.3237   -0.9760    0.2000
     3          C       0.7355    0.6027    0.2000
     4          N       1.8396    1.4004    0.2021
     5          H      -1.8841   -0.3909    1.0574
     6          H      -1.7946   -2.0313    0.3735
     7          C      -2.0374   -0.4524   -1.1098
     8          H      -1.6603   -1.0110   -1.9775
     9          H      -1.7855    0.6071   -1.2687
    10          H      -3.1351   -0.5201   -1.1403
    11          C       0.6492    2.0787    0.1885


    FIRST DERIVATIVES WILL BE USED IN THE CALCULATION OF SECOND DERIVATIVES

          ESTIMATED TIME TO COMPLETE CALCULATION =        1.03 SECONDS

    FOR POINT-GROUP C1   THERE ARE   1 UNIQUE SYMMETRY FUNCTIONS.

 STEP:   1 TIME =     0.03 SECS, INTEGRAL =      0.03 TIME LEFT: 172799.96
 STEP:   2 TIME =     0.02 SECS, INTEGRAL =      0.05 TIME LEFT: 172799.93
 STEP:   3 TIME =     0.03 SECS, INTEGRAL =      0.08 TIME LEFT: 172799.91
 STEP:   4 TIME =     0.02 SECS, INTEGRAL =      0.10 TIME LEFT: 172799.88
 STEP:   5 TIME =     0.02 SECS, INTEGRAL =      0.12 TIME LEFT: 172799.86
 STEP:   6 TIME =     0.03 SECS, INTEGRAL =      0.15 TIME LEFT: 172799.83
 STEP:   7 TIME =     0.02 SECS, INTEGRAL =      0.18 TIME LEFT: 172799.81
 STEP:   8 TIME =     0.03 SECS, INTEGRAL =      0.20 TIME LEFT: 172799.78
 STEP:   9 TIME =     0.03 SECS, INTEGRAL =      0.23 TIME LEFT: 172799.75
 STEP:  10 TIME =     0.02 SECS, INTEGRAL =      0.25 TIME LEFT: 172799.73
 STEP:  11 TIME =     0.03 SECS, INTEGRAL =      0.28 TIME LEFT: 172799.70
 STEP:  12 TIME =     0.03 SECS, INTEGRAL =      0.31 TIME LEFT: 172799.68
 STEP:  13 TIME =     0.02 SECS, INTEGRAL =      0.33 TIME LEFT: 172799.65
 STEP:  14 TIME =     0.02 SECS, INTEGRAL =      0.36 TIME LEFT: 172799.63
 STEP:  15 TIME =     0.03 SECS, INTEGRAL =      0.38 TIME LEFT: 172799.60
 STEP:  16 TIME =     0.02 SECS, INTEGRAL =      0.41 TIME LEFT: 172799.58
 STEP:  17 TIME =     0.03 SECS, INTEGRAL =      0.44 TIME LEFT: 172799.55
 STEP:  18 TIME =     0.02 SECS, INTEGRAL =      0.46 TIME LEFT: 172799.52
 STEP:  19 TIME =     0.05 SECS, INTEGRAL =      0.51 TIME LEFT: 172799.48
 STEP:  20 TIME =     0.02 SECS, INTEGRAL =      0.53 TIME LEFT: 172799.45
 STEP:  21 TIME =     0.03 SECS, INTEGRAL =      0.56 TIME LEFT: 172799.43
 STEP:  22 TIME =     0.02 SECS, INTEGRAL =      0.58 TIME LEFT: 172799.40
 STEP:  23 TIME =     0.03 SECS, INTEGRAL =      0.61 TIME LEFT: 172799.38
 STEP:  24 TIME =     0.02 SECS, INTEGRAL =      0.63 TIME LEFT: 172799.35
 STEP:  25 TIME =     0.02 SECS, INTEGRAL =      0.66 TIME LEFT: 172799.33
 STEP:  26 TIME =     0.02 SECS, INTEGRAL =      0.68 TIME LEFT: 172799.30
 STEP:  27 TIME =     0.02 SECS, INTEGRAL =      0.70 TIME LEFT: 172799.28
 STEP:  28 TIME =     0.02 SECS, INTEGRAL =      0.73 TIME LEFT: 172799.26
 STEP:  29 TIME =     0.03 SECS, INTEGRAL =      0.75 TIME LEFT: 172799.23
 STEP:  30 TIME =     0.02 SECS, INTEGRAL =      0.78 TIME LEFT: 172799.21
 STEP:  31 TIME =     0.03 SECS, INTEGRAL =      0.80 TIME LEFT: 172799.18
 STEP:  32 TIME =     0.02 SECS, INTEGRAL =      0.83 TIME LEFT: 172799.16
 STEP:  33 TIME =     0.03 SECS, INTEGRAL =      0.86 TIME LEFT: 172799.13

(To convert to Hartree/Bohr^2, multiply by (10^(-21) x N x a0^2)/(4.184 x 627.51) =  0.0642)


           FORCE MATRIX IN MILLIDYNES/ANGSTROM


                  C  1       S  2       C  3       N  4       H  5       H  6
 ------------------------------------------------------------------------------
     C    1  10.511151
     S    2   2.014855   5.998244
     C    3   0.528878   2.406258  11.168305
     N    4   0.095193   1.328029   8.393653  12.797472
     H    5   3.377801   0.604684   0.029357   0.021873   4.157315
     H    6   3.356856   0.526580   0.109725   0.006417   0.421294   4.140723
     C    7   3.724637   0.569727   0.055394   0.048857   0.609937   0.603273
     H    8   0.618782   0.037352   0.014771   0.009880   0.051361   0.017512
     H    9   0.619395   0.038499   0.024636   0.027714   0.019041   0.051558
     H   10   0.624965   0.049935   0.007728   0.007762   0.018183   0.017772
     C   11   0.085414   0.878884   5.328093   7.445594   0.028033   0.018464


                  C  7       H  8       H  9       H 10       C 11
 ------------------------------------------------------------------
     C    7  11.490261
     H    8   3.480279   4.226469
     H    9   3.465162   0.436305   4.208398
     H   10   3.456941   0.439602   0.439124   4.212920
     C   11   0.057136   0.011311   0.034839   0.009248   9.260662


          HEAT OF FORMATION =     123.056129 KCALS/MOLE

          ZERO POINT ENERGY      45.230 KCAL/MOL


           NORMAL COORDINATE ANALYSIS (Total motion = 1 Angstrom)


   Root No.       1         2         3         4         5         6         7         8

                 1 A       2 A       3 A       4 A       5 A       6 A       7 A       8 A   

                  33.8     129.2     148.3     182.8     298.5     386.8     391.9     602.3
  
           1    0.0085   -0.0069    0.0105   -0.0022   -0.0019    0.0401   -0.0436    0.0916
           2   -0.0395   -0.0556    0.0092   -0.0459   -0.0089    0.0384   -0.0435    0.0335
           3   -0.0190   -0.0164    0.0058   -0.0198    0.0661   -0.0320    0.0367   -0.0091
           4    0.0087   -0.0098    0.0119   -0.0038   -0.0133    0.0433   -0.0501   -0.0065
           5   -0.0157    0.0279   -0.0056    0.0128    0.0024   -0.0185    0.0229    0.1162
           6    0.0273   -0.0013   -0.0230    0.0134   -0.0382   -0.0159   -0.0417    0.0002
           7   -0.0103   -0.0130    0.0105   -0.0201   -0.0845   -0.0870    0.0909   -0.0268
           8   -0.0108    0.0274   -0.0049    0.0169    0.0253    0.0221   -0.0228   -0.0659
           9   -0.0087   -0.0026   -0.0133    0.0064   -0.0207    0.2148    0.1265   -0.0025
          10   -0.0223    0.0290   -0.0029    0.0040   -0.0284   -0.0335    0.0367   -0.0146
          11    0.0055   -0.0256    0.0122   -0.0128   -0.0520   -0.0580    0.0613   -0.0993
          12   -0.0056    0.0404    0.1133   -0.0328    0.0205   -0.0465   -0.0204    0.0005
          13   -0.0175   -0.0427    0.0414   -0.0361    0.0127    0.0942   -0.0932   -0.0075
          14   -0.1307   -0.1213    0.0224   -0.1006    0.0226    0.0962   -0.1045   -0.0527
          15    0.0314    0.0120    0.0118    0.0020    0.0495   -0.0423    0.0500    0.0093
          16    0.0204    0.0546    0.0045    0.0293   -0.0397   -0.0129    0.0081    0.1785
          17   -0.0615   -0.0830    0.0145   -0.0647    0.0088    0.0646   -0.0683   -0.0099
          18   -0.1318   -0.0680    0.0276   -0.0775    0.0870    0.0250   -0.0179   -0.0540
          19    0.0279   -0.0419   -0.0304    0.0026    0.1001   -0.0364    0.0468    0.0193
          20    0.0846   -0.0274    0.0004   -0.0010   -0.0015    0.0121   -0.0155   -0.0031
          21    0.0226    0.0101    0.0205   -0.0040    0.0289   -0.0159    0.0150    0.0083
          22    0.0534    0.0425   -0.2013   -0.1588    0.1550   -0.0638    0.0806   -0.0261
          23    0.1772    0.0806   -0.1238   -0.1090   -0.0136    0.0209   -0.0266   -0.0169
          24   -0.0259   -0.0230    0.0269   -0.0041    0.0589   -0.0316    0.0346   -0.0017
          25    0.0162   -0.1627    0.1196    0.1810    0.1407   -0.0875    0.1049   -0.0343
          26    0.1046    0.0136   -0.0505   -0.0533   -0.0074    0.0197   -0.0245    0.0016
          27    0.1348    0.0923   -0.0829   -0.0695    0.0456   -0.0375    0.0381   -0.0394
          28    0.0295   -0.0331   -0.0446   -0.0124    0.1024   -0.0364    0.0471    0.0177
          29    0.0726   -0.1574    0.1743    0.2014    0.0296   -0.0353    0.0379   -0.0458
          30   -0.0068   -0.0184    0.1330    0.0778   -0.0641    0.0511   -0.0665    0.0967
          31   -0.0320    0.0661   -0.0122    0.0249    0.0237    0.0157   -0.0155   -0.0605
          32   -0.0126    0.0335   -0.0072    0.0214    0.0359    0.0305   -0.0353   -0.1485
          33   -0.0615   -0.0342   -0.0933    0.0258   -0.0112   -0.0672   -0.0464    0.0013


   Root No.       9        10        11        12        13        14        15        16

                 9 A      10 A      11 A      12 A      13 A      14 A      15 A      16 A   

                 704.9     803.0     923.4     997.9    1026.1    1085.2    1133.9    1169.5
  
           1    0.1641    0.0087    0.0007    0.0018   -0.0387   -0.0190    0.0013   -0.0407
           2    0.0229   -0.0527   -0.0127    0.0317    0.0024   -0.0281   -0.0369    0.0428
           3   -0.0311   -0.0233   -0.0078    0.0116    0.0148   -0.0132   -0.0126   -0.1104
           4   -0.0882   -0.0061   -0.0144    0.0017    0.0085    0.0015    0.0001    0.0017
           5   -0.0365    0.0132   -0.0406   -0.0078   -0.0010    0.0180   -0.0028   -0.0006
           6    0.0026    0.0031    0.0005   -0.0019   -0.0031    0.0003   -0.0008   -0.0006
           7    0.0122   -0.0001   -0.0068    0.0077   -0.0067    0.1790   -0.0041   -0.0032
           8    0.0117   -0.0062    0.3395    0.0014    0.0029   -0.0157    0.0006    0.0003
           9    0.0007    0.0003   -0.0011    0.0002   -0.0006    0.0015    0.0000    0.0007
          10   -0.0008    0.0027    0.2052   -0.0053    0.0038   -0.0537    0.0013   -0.0003
          11    0.0277    0.0068   -0.0931   -0.0110    0.0051   -0.1586    0.0037    0.0015
          12   -0.0009   -0.0006    0.0017    0.0001    0.0006    0.0006   -0.0000   -0.0008
          13    0.0831    0.1084    0.0464   -0.1963   -0.1622    0.0635   -0.1473   -0.0563
          14   -0.0209    0.1872    0.0133    0.0049    0.0066    0.0301    0.0754    0.1368
          15   -0.0167   -0.1175   -0.0002   -0.0656   -0.0488   -0.0128   -0.1449   -0.1645
          16    0.1127   -0.1216   -0.0243    0.2509   -0.0544   -0.0844    0.1600   -0.0099
          17    0.0122    0.0430   -0.0023   -0.0350    0.0021    0.0058   -0.0387    0.0106
          18   -0.0343    0.2211    0.0352    0.0752   -0.0247    0.0338    0.1970   -0.1798
          19    0.0381    0.0034   -0.0007   -0.0094    0.0544    0.0171   -0.0027    0.0317
          20   -0.0061   -0.0091   -0.0022   -0.0267   -0.0001    0.0138    0.0526   -0.0438
          21    0.0159   -0.0015    0.0029   -0.0114   -0.0121    0.0084    0.0168    0.1173
          22   -0.0705   -0.0535    0.0046   -0.0248   -0.1509   -0.0206    0.0390    0.0657
          23    0.0076    0.1147    0.0121    0.1054    0.0490   -0.0221   -0.1002   -0.0707
          24   -0.0365   -0.0955   -0.0061   -0.0894   -0.1146    0.0106    0.1166    0.1295
          25   -0.0689    0.0429    0.0174    0.0730   -0.1244   -0.0341   -0.0440    0.0509
          26    0.0087    0.0138   -0.0050   -0.0042    0.0314    0.0035    0.0190   -0.0328
          27   -0.0324    0.1535    0.0185    0.1649   -0.0372   -0.0636   -0.1696    0.1173
          28    0.0328   -0.0023   -0.0004   -0.0116    0.0279    0.0129    0.0059    0.0204
          29   -0.0950    0.0628    0.0130    0.0958   -0.1053   -0.0672   -0.0749   -0.0141
          30    0.2193    0.0345   -0.0087   -0.0288    0.2943    0.0770   -0.0246    0.0324
          31    0.0143    0.0034   -0.1977   -0.0061    0.0029   -0.1133    0.0027    0.0019
          32    0.0439   -0.0106   -0.1105    0.0132   -0.0070    0.1710   -0.0032   -0.0020
          33    0.0003    0.0006   -0.0006   -0.0003   -0.0003   -0.0020   -0.0000    0.0004


   Root No.      17        18        19        20        21        22        23        24

                17 A      18 A      19 A      20 A      21 A      22 A      23 A      24 A   

                1215.6    1248.3    1250.7    1264.2    1336.1    1775.9    2650.6    2682.3
  
           1   -0.0582   -0.0010    0.0005   -0.0206   -0.0076    0.0016    0.0017    0.0007
           2   -0.0006   -0.0068   -0.0029    0.0277    0.0025    0.0055   -0.0382   -0.0046
           3   -0.0065    0.0078   -0.0074   -0.0609   -0.0065   -0.0010   -0.0152   -0.0057
           4   -0.0059   -0.0000    0.0000    0.0017    0.0002    0.0031   -0.0002    0.0003
           5   -0.0015    0.0003   -0.0002   -0.0006    0.0001    0.0108   -0.0005   -0.0001
           6    0.0029   -0.0004    0.0001    0.0014   -0.0000    0.0001   -0.0002   -0.0000
           7   -0.0035   -0.0001    0.0012   -0.0025   -0.0006   -0.1992    0.0002    0.0002
           8   -0.0004   -0.0003    0.0001   -0.0008   -0.0000   -0.2703    0.0002    0.0000
           9    0.0006   -0.0000    0.0001   -0.0000    0.0001    0.0003   -0.0000    0.0000
          10   -0.0007    0.0001   -0.0003   -0.0007    0.0002    0.3282   -0.0001    0.0001
          11    0.0029    0.0004   -0.0009    0.0018    0.0005    0.0280   -0.0000   -0.0002
          12   -0.0003    0.0001    0.0000   -0.0005   -0.0001    0.0022    0.0000   -0.0000
          13    0.3455   -0.0044   -0.0027    0.0178    0.0220    0.0034   -0.1227   -0.0376
          14    0.1112    0.0559   -0.0300   -0.2967   -0.0175   -0.0018    0.1636    0.0547
          15    0.0916   -0.0374    0.0089    0.1890    0.0151    0.0014    0.2681    0.0822
          16    0.3308    0.0015    0.0019   -0.0109    0.0190    0.0240    0.1050   -0.0016
          17   -0.1084   -0.0173    0.0045    0.0773    0.0040    0.0060    0.3340   -0.0075
          18   -0.0117   -0.0528    0.0495    0.3196    0.0225    0.0008   -0.0706   -0.0030
          19    0.0241   -0.0295    0.0156    0.0103   -0.0215    0.0004    0.0005   -0.0385
          20    0.0027   -0.0163   -0.0225   -0.0084    0.0207   -0.0005    0.0117   -0.0204
          21   -0.0059    0.0059   -0.0150    0.0188   -0.0531    0.0006    0.0044    0.0085
          22   -0.0420    0.2742    0.1449    0.0216    0.1672    0.0007    0.0392    0.0190
          23    0.0178    0.2370   -0.0809    0.0682   -0.1734    0.0014   -0.0509   -0.0679
          24   -0.0426   -0.0283    0.0983   -0.0349    0.1618    0.0003   -0.0870   -0.0871
          25   -0.0414    0.1146   -0.3229    0.0476    0.1473   -0.0009   -0.0304    0.0532
          26    0.0128   -0.0733    0.0744   -0.0217    0.0200   -0.0008   -0.1219    0.3064
          27   -0.0378   -0.2245    0.0272   -0.0605    0.2470    0.0013    0.0222   -0.0478
          28    0.0132   -0.0235   -0.0170    0.0074   -0.0158    0.0007   -0.0136    0.4058
          29   -0.0191    0.0663    0.3413   -0.0316   -0.1109    0.0022    0.0062    0.0138
          30    0.0516    0.1921    0.0785    0.0463    0.2636   -0.0008    0.0020    0.0223
          31    0.0033    0.0002   -0.0005    0.0022    0.0003   -0.1961    0.0000   -0.0002
          32   -0.0024   -0.0004    0.0011   -0.0017   -0.0007    0.2032   -0.0000    0.0002
          33    0.0002   -0.0001   -0.0000    0.0004    0.0000   -0.0030   -0.0000    0.0000


   Root No.      25        26        27

                25 A      26 A      27 A   

                2689.5    2724.3    2783.6
  
           1    0.0002   -0.0180   -0.0009
           2   -0.0132   -0.0110    0.0021
           3   -0.0035    0.0276   -0.0054
           4   -0.0002   -0.0016    0.0001
           5   -0.0002   -0.0002    0.0000
           6   -0.0001    0.0003   -0.0000
           7    0.0003    0.0001   -0.0001
           8    0.0002    0.0005   -0.0000
           9    0.0000    0.0000   -0.0000
          10    0.0000   -0.0001   -0.0000
          11   -0.0002    0.0002    0.0001
          12   -0.0000   -0.0000   -0.0000
          13   -0.0263    0.1449   -0.0076
          14    0.0335   -0.2279    0.0128
          15    0.0605   -0.3269    0.0195
          16    0.0357    0.1071   -0.0053
          17    0.1180    0.3820   -0.0219
          18   -0.0247   -0.0579    0.0039
          19    0.0139   -0.0073   -0.0090
          20   -0.0325   -0.0017    0.0076
          21   -0.0186    0.0051   -0.0211
          22   -0.1210    0.0030   -0.1100
          23    0.1756   -0.0105    0.1615
          24    0.2966   -0.0185    0.2471
          25    0.0669   -0.0027   -0.0702
          26    0.2447    0.0070   -0.2876
          27   -0.0527   -0.0017    0.0407
          28   -0.1180    0.0989    0.3076
          29   -0.0230    0.0053    0.0197
          30   -0.0145    0.0060    0.0061
          31   -0.0002    0.0002    0.0001
          32    0.0002   -0.0004   -0.0002
          33    0.0000    0.0000   -0.0000


           MASS-WEIGHTED COORDINATE ANALYSIS (NORMAL COORDINATES)


   Root No.       1         2         3         4         5         6         7         8

                 1 A       2 A       3 A       4 A       5 A       6 A       7 A       8 A   

                  33.8     129.2     148.3     182.8     298.5     386.8     391.9     602.3
  
           1    0.0501   -0.0414    0.0531   -0.0156   -0.0096    0.1385   -0.1778    0.3000
           2   -0.2340   -0.3317    0.0466   -0.3267   -0.0441    0.1328   -0.1771    0.1096
           3   -0.1129   -0.0980    0.0294   -0.1413    0.3268   -0.1104    0.1495   -0.0300
           4    0.0846   -0.0957    0.0984   -0.0440   -0.1072    0.2441   -0.3337   -0.0348
           5   -0.1516    0.2718   -0.0462    0.1483    0.0195   -0.1045    0.1526    0.6219
           6    0.2647   -0.0127   -0.1904    0.1561   -0.3080   -0.0897   -0.2779    0.0011
           7   -0.0613   -0.0774    0.0531   -0.1430   -0.4175   -0.3004    0.3707   -0.0878
           8   -0.0638    0.1633   -0.0246    0.1202    0.1248    0.0764   -0.0930   -0.2159
           9   -0.0514   -0.0158   -0.0675    0.0456   -0.1025    0.7418    0.5159   -0.0083
          10   -0.1424    0.1869   -0.0161    0.0309   -0.1516   -0.1248    0.1615   -0.0515
          11    0.0354   -0.1649    0.0666   -0.0984   -0.2773   -0.2164    0.2700   -0.3512
          12   -0.0359    0.2602    0.6192   -0.2522    0.1095   -0.1736   -0.0896    0.0018
          13   -0.0300   -0.0738    0.0607   -0.0744    0.0182    0.0942   -0.1101   -0.0072
          14   -0.2243   -0.2097    0.0329   -0.2074    0.0323    0.0962   -0.1234   -0.0500
          15    0.0538    0.0208    0.0173    0.0041    0.0709   -0.0423    0.0591    0.0088
          16    0.0351    0.0944    0.0066    0.0604   -0.0569   -0.0129    0.0095    0.1694
          17   -0.1056   -0.1435    0.0213   -0.1334    0.0126    0.0646   -0.0807   -0.0093
          18   -0.2263   -0.1175    0.0405   -0.1597    0.1246    0.0250   -0.0211   -0.0512
          19    0.1654   -0.2501   -0.1539    0.0184    0.4947   -0.1258    0.1906    0.0632
          20    0.5012   -0.1635    0.0021   -0.0069   -0.0072    0.0418   -0.0633   -0.0100
          21    0.1342    0.0601    0.1035   -0.0281    0.1427   -0.0551    0.0613    0.0271
          22    0.0916    0.0735   -0.2951   -0.3275    0.2219   -0.0638    0.0952   -0.0247
          23    0.3042    0.1394   -0.1815   -0.2248   -0.0195    0.0209   -0.0314   -0.0160
          24   -0.0444   -0.0397    0.0394   -0.0086    0.0844   -0.0317    0.0409   -0.0016
          25    0.0279   -0.2812    0.1753    0.3731    0.2014   -0.0875    0.1239   -0.0325
          26    0.1796    0.0236   -0.0741   -0.1098   -0.0106    0.0197   -0.0290    0.0015
          27    0.2315    0.1594   -0.1215   -0.1433    0.0653   -0.0375    0.0450   -0.0374
          28    0.0507   -0.0572   -0.0654   -0.0256    0.1465   -0.0364    0.0556    0.0168
          29    0.1247   -0.2721    0.2555    0.4153    0.0424   -0.0353    0.0447   -0.0434
          30   -0.0117   -0.0318    0.1949    0.1605   -0.0918    0.0511   -0.0785    0.0917
[...]
 FREQUENCY           704.87         C  1 -- S  2         +30.7% (100.1%)     92.2%
 TRANSITION DIPOLE   0.2584         C  1 -- C  7         +18.0% ( 76.7%)      0.2%
 TRAVEL (Ang.)       0.1194         C  1 -- H  5         +15.5% ( 71.1%)     13.9%
 REDUCED MASS        6.7061         C  1 -- H  6         +15.3% ( 70.6%)     18.0%
 EFFECTIVE MASS     18.1336
 FORCE CONSTANT      1.9631

 VIBRATION         10   10A           ATOM PAIR      ENERGY CONTRIBUTION    RADIAL
 FREQUENCY           803.04         C  1 -- H  6         +30.0% ( 84.6%)      9.6%
 TRANSITION DIPOLE   0.3364         C  1 -- H  5         +28.0% ( 81.8%)     13.4%
 TRAVEL (Ang.)       0.3859         C  1 -- S  2         +10.7% ( 50.5%)      5.2%
 REDUCED MASS        0.5639         C  1 -- C  7          +9.6% ( 47.8%)      0.1%
 EFFECTIVE MASS      4.0565
 FORCE CONSTANT      0.2143

 VIBRATION         11   11A           ATOM PAIR      ENERGY CONTRIBUTION    RADIAL
 FREQUENCY           923.43         C  3 -- C 11         +28.3% ( 89.2%)     80.3%
 TRANSITION DIPOLE   2.0572         S  2 -- C  3         +25.9% ( 85.4%)     95.5%
 TRAVEL (Ang.)       0.1273         N  4 -- C 11         +24.4% ( 82.8%)     73.4%
 REDUCED MASS        4.5032         C  3 -- N  4         +21.0% ( 76.8%)      2.1%
 EFFECTIVE MASS     12.8698
 FORCE CONSTANT      2.2625

 VIBRATION         12   12A           ATOM PAIR      ENERGY CONTRIBUTION    RADIAL
 FREQUENCY           997.90         C  1 -- H  6         +28.4% ( 65.4%)      7.2%
 TRANSITION DIPOLE   0.4947         C  1 -- H  5         +19.8% ( 54.6%)      6.9%
 TRAVEL (Ang.)       0.4853         C  7 -- H  9         +17.0% ( 50.7%)     10.4%
 REDUCED MASS        0.2870         C  7 -- H  8         +11.3% ( 41.2%)      8.1%
 EFFECTIVE MASS      2.7818
 FORCE CONSTANT      0.1684

 VIBRATION         13   13A           ATOM PAIR      ENERGY CONTRIBUTION    RADIAL
 FREQUENCY          1026.07         C  7 -- H 10         +34.6% ( 75.0%)     16.4%
 TRANSITION DIPOLE   0.5846         C  7 -- H  8         +20.9% ( 58.3%)      5.7%
 TRAVEL (Ang.)       0.3452         C  7 -- H  9         +14.8% ( 49.0%)      1.8%
 REDUCED MASS        0.5513         C  1 -- C  7         +12.4% ( 44.9%)      1.3%
 EFFECTIVE MASS      3.6752
 FORCE CONSTANT      0.3420

 VIBRATION         14   14A           ATOM PAIR      ENERGY CONTRIBUTION    RADIAL
 FREQUENCY          1085.21         C  3 -- N  4         +31.0% ( 77.3%)     99.8%
 TRANSITION DIPOLE   5.3539         N  4 -- C 11         +28.7% ( 74.3%)     39.3%
 TRAVEL (Ang.)       0.1268         C  3 -- C 11         +27.4% ( 72.7%)     34.4%
 REDUCED MASS        3.8669         S  2 -- C  3          +9.1% ( 42.0%)      0.0%
 EFFECTIVE MASS     12.4404
 FORCE CONSTANT      2.6831

 VIBRATION         15   15A           ATOM PAIR      ENERGY CONTRIBUTION    RADIAL
 FREQUENCY          1133.92         C  1 -- H  6         +22.5% ( 56.2%)      8.7%
 TRANSITION DIPOLE   0.2299         C  1 -- H  5         +18.1% ( 50.4%)      9.0%
 TRAVEL (Ang.)       0.3368         C  7 -- H  9         +16.1% ( 47.4%)     21.8%
 REDUCED MASS        0.5243         C  7 -- H  8         +15.4% ( 46.4%)     15.1%
 EFFECTIVE MASS      3.3119         C  1 -- C  7         +13.0% ( 42.7%)      0.5%
 FORCE CONSTANT      0.3972         C  7 -- H 10         +10.8% ( 39.0%)      0.0%

 VIBRATION         16   16A           ATOM PAIR      ENERGY CONTRIBUTION    RADIAL
 FREQUENCY          1169.49         C  1 -- C  7         +34.0% ( 91.1%)     99.4%
 TRANSITION DIPOLE   0.2236         C  7 -- H 10         +11.4% ( 52.8%)      5.0%
 TRAVEL (Ang.)       0.1299         C  1 -- H  5         +11.1% ( 52.2%)     32.3%
 REDUCED MASS        3.4178         C  7 -- H  8         +11.1% ( 52.2%)     31.0%
 EFFECTIVE MASS      9.7726         C  7 -- H  9         +11.0% ( 52.0%)     20.1%
 FORCE CONSTANT      2.7541         C  1 -- S  2         +10.8% ( 51.4%)     12.0%
                            C  1 -- H  6         +10.5% ( 50.6%)     21.0%

 VIBRATION         17   17A           ATOM PAIR      ENERGY CONTRIBUTION    RADIAL
 FREQUENCY          1215.57         C  1 -- H  5         +43.0% ( 67.4%)      0.6%
 TRANSITION DIPOLE   0.1457         C  1 -- H  6         +37.4% ( 62.8%)      0.6%
 TRAVEL (Ang.)       0.3221         C  1 -- C  7          +7.7% ( 28.5%)     12.3%
 REDUCED MASS        0.5348         C  1 -- S  2          +5.2% ( 23.4%)     94.9%
 EFFECTIVE MASS      2.2610
 FORCE CONSTANT      0.4656

 VIBRATION         18   18A           ATOM PAIR      ENERGY CONTRIBUTION    RADIAL
 FREQUENCY          1248.35         C  7 -- H  8         +48.9% ( 60.5%)      0.1%
 TRANSITION DIPOLE   0.5664         C  7 -- H  9         +26.7% ( 44.7%)      4.4%
 TRAVEL (Ang.)       0.3792         C  7 -- H 10         +16.0% ( 34.6%)     16.2%
 REDUCED MASS        0.3757         C  1 -- C  7          +4.2% ( 17.7%)      8.2%
 EFFECTIVE MASS      1.4835
 FORCE CONSTANT      0.3450

 VIBRATION         19   19A           ATOM PAIR      ENERGY CONTRIBUTION    RADIAL
 FREQUENCY          1250.67         C  7 -- H 10         +41.1% ( 54.4%)      0.9%
 TRANSITION DIPOLE   0.5271         C  7 -- H  9         +39.7% ( 53.5%)      1.4%
 TRAVEL (Ang.)       0.3805         C  7 -- H  8         +14.0% ( 31.7%)     23.9%
 REDUCED MASS        0.3724         C  1 -- C  7          +3.3% ( 15.3%)      4.8%
 EFFECTIVE MASS      1.3656
 FORCE CONSTANT      0.3432

 VIBRATION         20   20A           ATOM PAIR      ENERGY CONTRIBUTION    RADIAL
 FREQUENCY          1264.21         C  1 -- H  5         +37.4% ( 66.5%)      1.6%
 TRANSITION DIPOLE   0.4024         C  1 -- H  6         +32.5% ( 62.1%)      2.5%
 TRAVEL (Ang.)       0.2758         C  1 -- C  7         +14.1% ( 40.9%)     99.7%
 REDUCED MASS        0.7015         C  1 -- S  2          +9.9% ( 34.2%)     10.2%
 EFFECTIVE MASS      3.0619
 FORCE CONSTANT      0.6605

 VIBRATION         21   21A           ATOM PAIR      ENERGY CONTRIBUTION    RADIAL
 FREQUENCY          1336.13         C  7 -- H  8         +30.8% ( 56.7%)      1.8%
 TRANSITION DIPOLE   0.7529         C  7 -- H  9         +30.7% ( 56.6%)      1.6%
 TRAVEL (Ang.)       0.3165         C  7 -- H 10         +30.0% ( 55.9%)      1.5%
 REDUCED MASS        0.5039         C  1 -- C  7          +7.3% ( 27.6%)     99.1%
 EFFECTIVE MASS      2.2279
 FORCE CONSTANT      0.5300

 VIBRATION         22   22A           ATOM PAIR      ENERGY CONTRIBUTION    RADIAL
 FREQUENCY          1775.92         C  3 -- N  4         +36.9% ( 77.4%)     98.4%
 TRANSITION DIPOLE   2.2652         N  4 -- C 11         +28.5% ( 68.0%)     95.5%
 TRAVEL (Ang.)       0.0925         C  3 -- C 11         +24.1% ( 62.6%)     99.6%
 REDUCED MASS        4.4418         S  2 -- C  3         +10.5% ( 41.3%)     87.5%
 EFFECTIVE MASS     12.7997
 FORCE CONSTANT      8.2538

 VIBRATION         23   23A           ATOM PAIR      ENERGY CONTRIBUTION    RADIAL
 FREQUENCY          2650.55         C  1 -- H  6         +46.3% ( 70.5%)     98.1%
 TRANSITION DIPOLE   0.4618         C  1 -- H  5         +41.6% ( 66.8%)     97.6%
 TRAVEL (Ang.)       0.2493         C  7 -- H  9          +5.9% ( 25.2%)     98.8%
 REDUCED MASS        0.4092         C  7 -- H  8          +4.3% ( 21.5%)     97.1%
 EFFECTIVE MASS      1.4439
 FORCE CONSTANT      1.6940

 VIBRATION         24   24A           ATOM PAIR      ENERGY CONTRIBUTION    RADIAL
 FREQUENCY          2682.26         C  7 -- H 10         +56.7% ( 77.5%)     99.0%
 TRANSITION DIPOLE   0.5799         C  7 -- H  9         +34.0% ( 60.0%)     95.0%
 TRAVEL (Ang.)       0.2351         C  7 -- H  8          +4.8% ( 22.7%)     55.7%
 REDUCED MASS        0.4548         C  1 -- H  5          +3.6% ( 19.5%)     99.8%
 EFFECTIVE MASS      1.4473
 FORCE CONSTANT      1.9280

 VIBRATION         25   25A           ATOM PAIR      ENERGY CONTRIBUTION    RADIAL
 FREQUENCY          2689.51         C  7 -- H  8         +55.5% ( 76.6%)     99.1%
 TRANSITION DIPOLE   0.7805         C  7 -- H  9         +28.1% ( 54.5%)     93.8%
 TRAVEL (Ang.)       0.2466         C  7 -- H 10          +6.6% ( 26.5%)     66.3%
 REDUCED MASS        0.4122         C  1 -- H  6          +6.4% ( 26.0%)     98.9%
 EFFECTIVE MASS      1.4718
 FORCE CONSTANT      1.7567

 VIBRATION         26   26A           ATOM PAIR      ENERGY CONTRIBUTION    RADIAL
 FREQUENCY          2724.26         C  1 -- H  5         +50.8% ( 70.2%)     97.0%
 TRANSITION DIPOLE   0.8204         C  1 -- H  6         +45.1% ( 66.2%)     96.1%
 TRAVEL (Ang.)       0.2330         C  7 -- H 10          +2.9% ( 16.9%)     98.5%
 REDUCED MASS        0.4561         C  1 -- S  2          +0.5% (  6.7%)     21.6%
 EFFECTIVE MASS      1.2435
 FORCE CONSTANT      1.9943

 VIBRATION         27   27A           ATOM PAIR      ENERGY CONTRIBUTION    RADIAL
 FREQUENCY          2783.56         C  7 -- H  8         +34.9% ( 56.9%)     95.7%
 TRANSITION DIPOLE   0.4448         C  7 -- H 10         +33.3% ( 55.5%)     95.4%
 TRAVEL (Ang.)       0.2734         C  7 -- H  9         +31.1% ( 53.7%)     95.0%
 REDUCED MASS        0.3241         C  1 -- C  7          +0.3% (  5.1%)     99.2%
 EFFECTIVE MASS      1.1488
 FORCE CONSTANT      1.4798

      SYMMETRY NUMBER FOR POINT-GROUP C1  =  1


          SYSTEM IS A GROUND STATE


 All coordinates are Cartesian
 etscn


          MOLECULE IS NOT LINEAR

          THERE ARE 27 GENUINE VIBRATIONS IN THIS SYSTEM
          THIS THERMODYNAMICS CALCULATION IS LIMITED TO
          MOLECULES WHICH HAVE NO INTERNAL ROTATIONS




                    CALCULATED THERMODYNAMIC PROPERTIES
                                          *
   TEMP. (K)   PARTITION FUNCTION   H.O.F.    ENTHALPY  HEAT CAPACITY ENTROPY
                                   KCAL/MOL   CAL/MOLE    CAL/K/MOL  CAL/K/MOL


 298.00  VIB.     0.1023D+03                  2787.8972    17.6633    18.5522
         ROT.     0.1948D+06                   888.2803     2.9808    27.1848
         INT.     0.1993D+08                  3676.1775    20.6441    45.7370
         TRA.     0.9545D+27                  1480.4672     4.9680    39.6903
         TOT.                      123.056    5156.6447    25.6121    85.4273

 200.00  VIB.     0.2100D+02                  1318.3340    12.3889    12.6421
         ROT.     0.1071D+06                   596.1613     2.9808    25.9962
         INT.     0.2250D+07                  1914.4953    15.3697    38.6382
         TRA.     0.5248D+27                   993.6021     4.9680    37.7092
         TOT.                      120.808    2908.0974    20.3377    76.3474

 210.00  VIB.     0.2478D+02                  1444.8108    12.9073    13.2591
         ROT.     0.1153D+06                   625.9693     2.9808    26.1416
         INT.     0.2856D+07                  2070.7801    15.8881    39.4007
         TRA.     0.5646D+27                  1043.2822     4.9680    37.9516
         TOT.                      121.014    3114.0624    20.8561    77.3522

 220.00  VIB.     0.2921D+02                  1576.4968    13.4308    13.8716
         ROT.     0.1236D+06                   655.7774     2.9808    26.2803
         INT.     0.3610D+07                  2232.2742    16.4116    40.1518
         TRA.     0.6054D+27                  1092.9623     4.9680    38.1827
         TOT.                      121.225    3325.2366    21.3796    78.3345

 230.00  VIB.     0.3439D+02                  1713.4452    13.9598    14.4802
         ROT.     0.1321D+06                   685.5855     2.9808    26.4128
         INT.     0.4544D+07                  2399.0307    16.9406    40.8930
         TRA.     0.6472D+27                  1142.6424     4.9680    38.4035
         TOT.                      121.441    3541.6732    21.9086    79.2965

 240.00  VIB.     0.4046D+02                  1855.7105    14.4941    15.0856
         ROT.     0.1408D+06                   715.3935     2.9808    26.5396
         INT.     0.5698D+07                  2571.1041    17.4749    41.6253
         TRA.     0.6899D+27                  1192.3226     4.9680    38.6150
         TOT.                      121.663    3763.4266    22.4430    80.2402

 250.00  VIB.     0.4757D+02                  2003.3445    15.0334    15.6882
         ROT.     0.1497D+06                   745.2016     2.9808    26.6613
         INT.     0.7121D+07                  2748.5461    18.0142    42.3495
         TRA.     0.7334D+27                  1242.0027     4.9680    38.8178
         TOT.                      121.890    3990.5487    22.9822    81.1673

 260.00  VIB.     0.5587D+02                  2156.3928    15.5769    16.2884
         ROT.     0.1588D+06                   775.0097     2.9808    26.7782
         INT.     0.8872D+07                  2931.4025    18.5577    43.0666
         TRA.     0.7779D+27                  1291.6828     4.9680    39.0126
         TOT.                      122.123    4223.0853    23.5257    82.0793

 270.00  VIB.     0.6558D+02                  2314.8934    16.1237    16.8866
         ROT.     0.1680D+06                   804.8177     2.9808    26.8907
         INT.     0.1102D+08                  3119.7111    19.1045    43.7773
         TRA.     0.8232D+27                  1341.3629     4.9680    39.2001
         TOT.                      122.361    4461.0740    24.0725    82.9774

 280.00  VIB.     0.7691D+02                  2478.8741    16.6727    17.4828
         ROT.     0.1775D+06                   834.6258     2.9808    26.9991
         INT.     0.1365D+08                  3313.4999    19.6535    44.4820
         TRA.     0.8693D+27                  1391.0430     4.9680    39.3808
         TOT.                      122.604    4704.5428    24.6216    83.8628

 290.00  VIB.     0.9015D+02                  2648.3521    17.2230    18.0775
         ROT.     0.1870D+06                   864.4339     2.9808    27.1037
         INT.     0.1686D+08                  3512.7860    20.2038    45.1812
         TRA.     0.9163D+27                  1440.7231     4.9680    39.5551
         TOT.                      122.853    4953.5091    25.1718    84.7364

 300.00  VIB.     0.1056D+03                  2823.3337    17.7733    18.6707
         ROT.     0.1968D+06                   894.2419     2.9808    27.2048
         INT.     0.2078D+08                  3717.5757    20.7541    45.8754
         TRA.     0.9641D+27                  1490.4032     4.9680    39.7236
         TOT.                      123.107    5207.9789    25.7221    85.5990

 310.00  VIB.     0.1236D+03                  3003.8139    18.3225    19.2624
         ROT.     0.2067D+06                   924.0500     2.9808    27.3025
         INT.     0.2555D+08                  3927.8639    21.3033    46.5649
         TRA.     0.1013D+28                  1540.0833     4.9680    39.8865
         TOT.                      123.367    5467.9472    26.2713    86.4514

 320.00  VIB.     0.1446D+03                  3189.7768    18.8696    19.8528
         ROT.     0.2168D+06                   953.8580     2.9808    27.3971
         INT.     0.3136D+08                  4143.6349    21.8505    47.2499
         TRA.     0.1062D+28                  1589.7634     4.9680    40.0442
         TOT.                      123.633    5733.3983    26.8185    87.2941

 330.00  VIB.     0.1691D+03                  3381.1965    19.4137    20.4418
         ROT.     0.2271D+06                   983.6661     2.9808    27.4889
         INT.     0.3840D+08                  4364.8626    22.3945    47.9306
         TRA.     0.1112D+28                  1639.4435     4.9680    40.1971
         TOT.                      123.904    6004.3061    27.3625    88.1277

 340.00  VIB.     0.1977D+03                  3578.0374    19.9537    21.0294
         ROT.     0.2375D+06                  1013.4742     2.9808    27.5779
         INT.     0.4694D+08                  4591.5115    22.9346    48.6072
         TRA.     0.1163D+28                  1689.1236     4.9680    40.3454
         TOT.                      124.180    6280.6351    27.9026    88.9526

 350.00  VIB.     0.2310D+03                  3780.2553    20.4890    21.6155
         ROT.     0.2480D+06                  1043.2822     2.9808    27.6643
         INT.     0.5728D+08                  4823.5375    23.4698    49.2798
         TRA.     0.1215D+28                  1738.8037     4.9680    40.4894
         TOT.                      124.462    6562.3413    28.4378    89.7692

 360.00  VIB.     0.2697D+03                  3987.7985    21.0187    22.2001
         ROT.     0.2587D+06                  1073.0903     2.9808    27.7482
         INT.     0.6977D+08                  5060.8888    23.9995    49.9484
         TRA.     0.1267D+28                  1788.4838     4.9680    40.6293
         TOT.                      124.749    6849.3726    28.9675    90.5777

 370.00  VIB.     0.3148D+03                  4200.6082    21.5422    22.7832
         ROT.     0.2696D+06                  1102.8984     2.9808    27.8299
         INT.     0.8485D+08                  5303.5066    24.5230    50.6131
         TRA.     0.1321D+28                  1838.1639     4.9680    40.7655
         TOT.                      125.041    7141.6705    29.4910    91.3785

 380.00  VIB.     0.3673D+03                  4418.6200    22.0590    23.3645
         ROT.     0.2806D+06                  1132.7064     2.9808    27.9094
         INT.     0.1030D+09                  5551.3264    25.0398    51.2739
         TRA.     0.1374D+28                  1887.8440     4.9680    40.8980
         TOT.                      125.339    7439.1705    30.0078    92.1719

 390.00  VIB.     0.4283D+03                  4641.7643    22.5686    23.9441
         ROT.     0.2917D+06                  1162.5145     2.9808    27.9868
         INT.     0.1249D+09                  5804.2788    25.5494    51.9310
         TRA.     0.1429D+28                  1937.5242     4.9680    41.0270
         TOT.                      125.641    7741.8030    30.5175    92.9580

 400.00  VIB.     0.4993D+03                  4869.9676    23.0707    24.5219
         ROT.     0.3030D+06                  1192.3226     2.9808    28.0623
         INT.     0.1513D+09                  6062.2902    26.0515    52.5842
         TRA.     0.1484D+28                  1987.2043     4.9680    41.1528
         TOT.                      125.949    8049.4944    31.0196    93.7370

   *: NOTE: HEATS OF FORMATION ARE RELATIVE TO THE
            ELEMENTS IN THEIR STANDARD STATE AT 298K
              (=  Standard Enthalpy of Formation).

            Hvib:  Zero-point energy is not included.
                   frequencies of less than zero cm-1 are not included.
            Hrot = (3/2)RT
            Htra = (3/2)RT + pV = (5/2)RT

            Heat capacity is Cp, not Cv

          For more information, see: HTTP://OpenMOPAC.net/Manual/thermochemistry.html


           FORCE CONSTANT IN CARTESIAN COORDINATES (Millidynes/A)

    ATOM   CHEMICAL       X               Y               Z
   NUMBER   SYMBOL  FORCE CONSTANT  FORCE CONSTANT  FORCE CONSTANT

      1       C        4.768366        6.322547        6.873349
      2       S        3.940647        4.340776        0.525638
      3       C        5.598001        8.302086        0.880830
      4       N       12.125328        3.669484        0.153766
      5       H        1.106513        1.495960        2.764418
      6       H        0.928180        3.657011        0.731512
      7       C        6.314020        6.393178        7.135322
      8       H        0.982054        1.467832        2.923456
      9       H        0.755449        3.844270        0.761892
     10       H        4.105757        0.550138        0.672680
     11       C        4.842901        6.273622        0.150703

 **********************
 *                    *
 * JOB ENDED NORMALLY *
 *                    *
 **********************



 TOTAL JOB TIME:             4.61 SECONDS

 == MOPAC DONE ==
