 *******************************************************************************
 **                                                                           **
 **                              MOPAC v22.1.1                                **
 **                                                                           **
 *******************************************************************************
 **          Digital Object Identifier (DOI): 10.5281/zenodo.6511958          **
 **    Visit the DOI location for information on how to cite this program.    **
 *******************************************************************************

                              PM6 CALCULATION RESULTS

 *******************************************************************************
 *  CALCULATION DONE:                                Tue May  7 17:21:07 2024  *
 *  PM6        - The PM6 Hamiltonian to be used
 *  MMOK       - APPLY MM CORRECTION TO CONH BARRIER
 *  STATIC     - CALCULATE STATIC FIELD POLARIZABILITIES
 *  POLAR      - CALCULATE FIRST, SECOND AND THIRD-ORDER POLARIZABILITIES
 *  PRECISE    - TIGHTER CRITERIA TO BE USED
 *  XYZ        - CARTESIAN COORDINATE SYSTEM TO BE USED
 *  T=         - A TIME OF 172800.0 SECONDS REQUESTED
 *  DUMP=N     - RESTART FILE WRITTEN EVERY 7200.0 SECONDS REQUESTED
 *  CYCLES=    - DO A MAXIMUM OF 8000 STEPS
 *  ENPART     - ENERGY TO BE PARTITIONED INTO COMPONENTS
 *  PRTXYZ     - PRINT CARTESIAN COORDINATES
 *  DISP       - PRINT DISPERSION AND HYDROGEN BOND ENERGIES
 *  BONDS      - FINAL BOND-ORDER MATRIX TO BE PRINTED
 *  LARGE      - EXPANDED OUTPUT TO BE PRINTED
 *  SUPER      - PRINT SUPERDELOCALIZABILITIES
 *  ALLVEC     - PRINT ALL EIGENVECTORS
 *******************************************************************************
PM6 PRECISE POLAR MMOK XYZ ENPART STATIC SUPER BONDS LARGE PRTXYZ DISP ALLVEC CYCLES = 8000
 mi
 All coordinates are Cartesian
   ATOM   CHEMICAL          X               Y               Z
  NUMBER   SYMBOL      (ANGSTROMS)     (ANGSTROMS)     (ANGSTROMS)
 
     1       N          0.00000000  *   0.61100000  *   0.00000000  *
     2       C         -1.12100000  *  -0.19500000  *   0.00000000  *
     3       C         -0.64900000  *  -1.48400000  *   0.00000000  *
     4       N          0.72800000  *  -1.49800000  *   0.00000000  *
     5       C          1.07900000  *  -0.23000000  *   0.00000000  *
     6       C          0.02800000  *   2.06300000  *   0.00000000  *
     7       H         -2.11900000  *   0.21800000  *   0.00000000  *
     8       H         -1.22200000  *  -2.40100000  *   0.00000000  *
     9       H          2.09300000  *   0.14800000  *   0.00000000  *
    10       H         -0.46600000  *   2.46300000  *   0.89000000  *
    11       H         -0.46600000  *   2.46300000  *  -0.89000000  *
    12       H          1.06700000  *   2.39700000  *   0.00000000  *
 


          CARTESIAN COORDINATES 

    NO.       ATOM           X           Y           Z

     1         N          0.0000      0.6110      0.0000
     2         C         -1.1210     -0.1950      0.0000
     3         C         -0.6490     -1.4840      0.0000
     4         N          0.7280     -1.4980      0.0000
     5         C          1.0790     -0.2300      0.0000
     6         C          0.0280      2.0630      0.0000
     7         H         -2.1190      0.2180      0.0000
     8         H         -1.2220     -2.4010      0.0000
     9         H          2.0930      0.1480      0.0000
    10         H         -0.4660      2.4630      0.8900
    11         H         -0.4660      2.4630     -0.8900
    12         H          1.0670      2.3970      0.0000

 General Reference for PM6:
 "Optimization of Parameters for Semiempirical Methods V: Modification of NDDO Approximations
 and Application to 70 Elements", J. J. P. Stewart, J. Mol. Mod., 13, 1173-1213 (2007)
 URL: https://link.springer.com/article/10.1007/s00894-007-0233-4

           Empirical Formula: C4 H6 N2  =    12 atoms



      MOLECULAR POINT GROUP   :   Cs  


      RHF CALCULATION, NO. OF DOUBLY OCCUPIED LEVELS = 16


          Geometry optimization using EF

          DIAGONAL MATRIX USED AS START HESSIAN

 CYCLE:     1 TIME:   0.008 TIME LEFT:  2.00D  GRAD.:   128.132 HEAT:  37.21360
 CYCLE:     2 TIME:   0.012 TIME LEFT:  2.00D  GRAD.:   133.401 HEAT:  37.12898
 CYCLE:     3 TIME:   0.004 TIME LEFT:  2.00D  GRAD.:    65.781 HEAT:  34.38353
 CYCLE:     4 TIME:   0.008 TIME LEFT:  2.00D  GRAD.:    26.375 HEAT:  33.34681
 CYCLE:     5 TIME:   0.008 TIME LEFT:  2.00D  GRAD.:    34.138 HEAT:  33.30714
 CYCLE:     6 TIME:   0.004 TIME LEFT:  2.00D  GRAD.:    20.801 HEAT:  33.07393
 CYCLE:     7 TIME:   0.004 TIME LEFT:  2.00D  GRAD.:    20.204 HEAT:  33.02542
 CYCLE:     8 TIME:   0.008 TIME LEFT:  2.00D  GRAD.:    10.632 HEAT:  32.93122
 CYCLE:     9 TIME:   0.004 TIME LEFT:  2.00D  GRAD.:     6.365 HEAT:  32.90415
 CYCLE:    10 TIME:   0.004 TIME LEFT:  2.00D  GRAD.:     5.577 HEAT:  32.89026
 CYCLE:    11 TIME:   0.004 TIME LEFT:  2.00D  GRAD.:     4.980 HEAT:  32.87658
 CYCLE:    12 TIME:   0.004 TIME LEFT:  2.00D  GRAD.:     5.021 HEAT:  32.87088
 CYCLE:    13 TIME:   0.004 TIME LEFT:  2.00D  GRAD.:     3.247 HEAT:  32.86287
 CYCLE:    14 TIME:   0.004 TIME LEFT:  2.00D  GRAD.:     2.881 HEAT:  32.85483
 CYCLE:    15 TIME:   0.004 TIME LEFT:  2.00D  GRAD.:     4.515 HEAT:  32.85312
 CYCLE:    16 TIME:   0.004 TIME LEFT:  2.00D  GRAD.:     5.413 HEAT:  32.85307
 CYCLE:    17 TIME:   0.004 TIME LEFT:  2.00D  GRAD.:     3.297 HEAT:  32.84413
 CYCLE:    18 TIME:   0.000 TIME LEFT:  2.00D  GRAD.:     4.967 HEAT:  32.84835
 CYCLE:    19 TIME:   0.004 TIME LEFT:  2.00D  GRAD.:     3.788 HEAT:  32.84426
 CYCLE:    20 TIME:   0.004 TIME LEFT:  2.00D  GRAD.:     3.530 HEAT:  32.84400
 CYCLE:    21 TIME:   0.004 TIME LEFT:  2.00D  GRAD.:     0.894 HEAT:  32.83882
 CYCLE:    22 TIME:   0.004 TIME LEFT:  2.00D  GRAD.:     0.787 HEAT:  32.83866
 CYCLE:    23 TIME:   0.004 TIME LEFT:  2.00D  GRAD.:     0.106 HEAT:  32.83848
 CYCLE:    24 TIME:   0.000 TIME LEFT:  2.00D  GRAD.:     0.046 HEAT:  32.83847

     GRADIENT =  0.04600 IS LESS THAN CUTOFF =  0.05000



 -------------------------------------------------------------------------------
 PM6 PRECISE POLAR MMOK XYZ ENPART STATIC SUPER BONDS LARGE PRTXYZ DISP ALLVEC CYCLES = 8000
 mi
 All coordinates are Cartesian


     GEOMETRY OPTIMISED USING EIGENVECTOR FOLLOWING (EF).     
     SCF FIELD WAS ACHIEVED                                   


                              PM6 CALCULATION
                                                       MOPAC v22.1.1 MacOS
                                                       Tue May  7 17:21:07 2024




          FINAL HEAT OF FORMATION =         32.83847 KCAL/MOL =     137.39615 KJ/MOL

          TOTAL ENERGY            =     -21440.39810 KCAL/MOL = ELECTRONIC ENERGY + CORE-CORE REPULSION
          ENERGY OF ATOMS         =      21473.73657 KCAL/MOL
                              SUM =         33.33847 KCAL/MOL
          DISPERSION ENERGY       =          0.00000 KCAL/MOL
          MM CORRECTION FOR >N-   =         -0.50000 KCAL/MOL
                              SUM =         32.83847 KCAL/MOL = FINAL HEAT OF FORMATION



          TOTAL ENERGY            =       -929.74366 EV
          ELECTRONIC ENERGY       =      -3701.17500 EV 
          CORE-CORE REPULSION     =       2771.43134 EV
          COSMO AREA              =        121.32 SQUARE ANGSTROMS
          COSMO VOLUME            =        109.07 CUBIC ANGSTROMS

          GRADIENT NORM           =          0.04600          =       0.01328 PER ATOM
          IONIZATION POTENTIAL    =          9.305672 EV
          HOMO LUMO ENERGIES (EV) =         -9.306  0.779
          NO. OF FILLED LEVELS    =         16
          MOLECULAR WEIGHT        =         82.1048         POINT GROUP:  Cs  

          MOLECULAR DIMENSIONS (Angstroms)

            Atom       Atom       Distance
            H    12    H     8     5.40417
            H     9    H     7     3.91630
            H    10    H    11     1.79098


          SCF CALCULATIONS        =         32
 
          WALL-CLOCK TIME         =      0.133 SECONDS
          COMPUTATION TIME        =      0.854 SECONDS




   ATOM   CHEMICAL          X               Y               Z
  NUMBER   SYMBOL      (ANGSTROMS)     (ANGSTROMS)     (ANGSTROMS)
 
     1       N          0.01183944  *   0.62066710  *   0.00000000  *
     2       C         -1.13370619  *  -0.18561145  *   0.00000000  *
     3       C         -0.67053391  *  -1.50563910  *  -0.00000000  *
     4       N          0.72264562  *  -1.52607480  *  -0.00000000  *
     5       C          1.12829744  *  -0.23338407  *   0.00000000  *
     6       C          0.01955936  *   2.08509438  *  -0.00000001  *
     7       H         -2.13212189  *   0.20090196  *   0.00000000  *
     8       H         -1.24265617  *  -2.41647192  *  -0.00000000  *
     9       H          2.14987164  *   0.10794540  *   0.00000000  *
    10       H         -0.49353694  *   2.48279205  *   0.89549215  *
    11       H         -0.49353693  *   2.48279204  *  -0.89549213  *
    12       H          1.05196355  *   2.47636214  *   0.00000000  *

                             CARTESIAN COORDINATES

   1    N        0.011839438     0.620667100     0.000000004
   2    C       -1.133706188    -0.185611450     0.000000002
   3    C       -0.670533907    -1.505639100    -0.000000002
   4    N        0.722645621    -1.526074803    -0.000000002
   5    C        1.128297438    -0.233384069     0.000000002
   6    C        0.019559357     2.085094378    -0.000000011
   7    H       -2.132121892     0.200901961     0.000000001
   8    H       -1.242656175    -2.416471919    -0.000000001
   9    H        2.149871635     0.107945402     0.000000000
  10    H       -0.493536936     2.482792046     0.895492148
  11    H       -0.493536928     2.482792041    -0.895492128
  12    H        1.051963548     2.476362136     0.000000003


           Empirical Formula: C4 H6 N2  =    12 atoms



      MOLECULAR POINT GROUP   :   Cs  


                EIGENVECTORS  


   Root No.       1         2         3         4         5         6         7         8

                 1 a'      2 a'      3 a'      4 a'      5 a'      6 a'      7 a'      1 a"  

               -33.955   -29.812   -25.759   -24.798   -20.813   -20.495   -17.877   -16.287
  
  S   N    1    0.5795   -0.4726    0.0795   -0.2360    0.0980   -0.2496    0.0908   -0.0000
  Px  N    1    0.0071    0.0293   -0.2874   -0.1747    0.4094    0.1734   -0.0477    0.0000
  Py  N    1   -0.1372   -0.2198   -0.1869    0.2420    0.0246   -0.1227    0.4408    0.0000
  Pz  N    1   -0.0000    0.0000    0.0000   -0.0000    0.0000   -0.0000    0.0000    0.5013
  S   C    2    0.3095   -0.0289    0.5081    0.1232   -0.2515    0.2865    0.0673    0.0000
  Px  C    2    0.1907   -0.0112    0.0363   -0.0847    0.0670   -0.1996   -0.3149   -0.0000
  Py  C    2    0.0110   -0.1791   -0.0287   -0.1142   -0.2998   -0.2314    0.0997   -0.0000
  Pz  C    2   -0.0000    0.0000    0.0000   -0.0000   -0.0000   -0.0000    0.0000    0.2516
  S   C    3    0.2668    0.2665    0.2469    0.3633    0.4031    0.1027    0.1075   -0.0000
  Px  C    3    0.1141    0.1399   -0.1677    0.0392   -0.0509   -0.3183   -0.1050    0.0000
  Py  C    3    0.1259    0.0113    0.1417   -0.0451   -0.1804    0.1748   -0.2393    0.0000
  Pz  C    3    0.0000    0.0000    0.0000   -0.0000    0.0000    0.0000    0.0000    0.1572
  S   N    4    0.3728    0.4801   -0.3203    0.2217   -0.1970   -0.2595    0.1835    0.0000
  Px  N    4   -0.1028   -0.0986   -0.1193   -0.1890   -0.2826    0.1876    0.1068   -0.0000
  Py  N    4    0.1781    0.1220   -0.1251   -0.1101   -0.1740    0.1611   -0.1133    0.0000
  Pz  N    4    0.0000    0.0000   -0.0000   -0.0000   -0.0000    0.0000    0.0000    0.1847
  S   C    5    0.3715    0.1192   -0.3372   -0.3171    0.0027    0.3765    0.0890   -0.0000
  Px  C    5   -0.1986   -0.0093   -0.0786    0.0365   -0.0891    0.2044    0.3278   -0.0000
  Py  C    5   -0.0223   -0.2502    0.0779   -0.1442    0.3591    0.0792   -0.0231   -0.0000
  Pz  C    5   -0.0000   -0.0000    0.0000   -0.0000    0.0000   -0.0000    0.0000    0.2676
  S   C    6    0.1449   -0.4140   -0.3063    0.4753   -0.0435    0.1220   -0.1103    0.0000
  Px  C    6    0.0005    0.0051   -0.0685   -0.0437    0.1611    0.0782   -0.0365    0.0000
  Py  C    6   -0.1042    0.1364   -0.0316    0.1147   -0.0719    0.2223   -0.4354    0.0000
  Pz  C    6    0.0000   -0.0000    0.0000   -0.0000    0.0000   -0.0000    0.0000    0.5920
  S   H    7    0.0693   -0.0356    0.2114    0.0835   -0.2165    0.2056    0.2371    0.0000
  S   H    8    0.0521    0.0801    0.1004    0.1749    0.2919    0.0654    0.2136   -0.0000
  S   H    9    0.0843    0.0131   -0.1779   -0.1445    0.0177    0.3151    0.2308   -0.0000
  S   H   10    0.0486   -0.1574   -0.1245    0.2454   -0.0808    0.0880   -0.1423    0.3198
  S   H   11    0.0486   -0.1574   -0.1245    0.2454   -0.0808    0.0880   -0.1423   -0.3198
  S   H   12    0.0503   -0.1558   -0.1769    0.2117    0.0507    0.1570   -0.1706    0.0000


   Root No.       9        10        11        12        13        14        15        16

                 8 a'      9 a'     10 a'     11 a'      2 a"     12 a'      3 a"      4 a"  

               -15.525   -14.633   -14.103   -13.855   -13.846   -10.452   -10.175    -9.306
  
  S   N    1   -0.0139   -0.0365   -0.0380   -0.0856   -0.0000   -0.1114   -0.0000   -0.0000
  Px  N    1    0.2942   -0.0060   -0.3005    0.1875    0.0000   -0.1456    0.0000    0.0000
  Py  N    1    0.1114   -0.2828    0.0965    0.1976    0.0000    0.1168   -0.0000   -0.0000
  Pz  N    1   -0.0000    0.0000   -0.0000    0.0000   -0.2667   -0.0000   -0.5923   -0.2674
  S   C    2    0.1297    0.0748    0.0704    0.0464    0.0000   -0.0806    0.0000    0.0000
  Px  C    2   -0.3635   -0.1603    0.3501   -0.1140   -0.0000   -0.0584    0.0000   -0.0000
  Py  C    2   -0.0418    0.4010   -0.0674   -0.2470   -0.0000    0.2339   -0.0000   -0.0000
  Pz  C    2   -0.0000    0.0000   -0.0000    0.0000   -0.3064   -0.0000   -0.3484    0.5504
  S   C    3   -0.1371   -0.0731    0.0439   -0.0167   -0.0000    0.0929   -0.0000   -0.0000
  Px  C    3    0.0957    0.3297    0.1630    0.2999    0.0000    0.2237   -0.0000    0.0000
  Py  C    3    0.1667   -0.2625    0.2493    0.4104    0.0000   -0.1281    0.0000   -0.0000
  Pz  C    3   -0.0000    0.0000   -0.0000    0.0000   -0.3545    0.0000    0.2537    0.5614
  S   N    4    0.1196    0.0770   -0.0040   -0.0305   -0.0000   -0.4284    0.0000    0.0000
  Px  N    4   -0.0420   -0.2824   -0.0969   -0.2997   -0.0000   -0.4417    0.0000    0.0000
  Py  N    4    0.0192   -0.3225   -0.1207   -0.0354   -0.0000    0.5836   -0.0000   -0.0000
  Pz  N    4   -0.0000    0.0000   -0.0000    0.0000   -0.4421    0.0000    0.6078   -0.0745
  S   C    5   -0.1273    0.0676   -0.0541    0.0102    0.0000    0.1441   -0.0000   -0.0000
  Px  C    5   -0.2754    0.1194    0.4248    0.0697    0.0000   -0.0475   -0.0000   -0.0000
  Py  C    5    0.0015    0.3487    0.0351    0.2165    0.0000   -0.1952    0.0000    0.0000
  Pz  C    5   -0.0000    0.0000   -0.0000    0.0000   -0.3826    0.0000    0.1619   -0.5440
  S   C    6   -0.0022   -0.0440    0.0027    0.0155    0.0000    0.0246    0.0000    0.0000
  Px  C    6    0.4888    0.0237    0.4061   -0.3796   -0.0000    0.0590   -0.0000   -0.0000
  Py  C    6   -0.1048    0.2992   -0.0842   -0.1669   -0.0000   -0.1104    0.0000   -0.0000
  Pz  C    6   -0.0000   -0.0000    0.0000   -0.0000    0.4558    0.0000    0.1669    0.0535
  S   H    7    0.2891    0.2603   -0.2214    0.0469    0.0000    0.0760   -0.0000   -0.0000
  S   H    8   -0.2063   -0.0044   -0.1876   -0.3798   -0.0000    0.0716   -0.0000    0.0000
  S   H    9   -0.2485    0.2058    0.2849    0.1004    0.0000    0.0263   -0.0000    0.0000
  S   H   10   -0.1821    0.0500   -0.1646    0.0987    0.2826   -0.0425    0.1411    0.0546
  S   H   11   -0.1821    0.0500   -0.1646    0.0987   -0.2826   -0.0425   -0.1411   -0.0546
  S   H   12    0.2860    0.0796    0.2757   -0.3027   -0.0000    0.0368   -0.0000   -0.0000


   Root No.      17        18        19        20        21        22        23        24

                 5 a"     13 a'      6 a"     14 a'     15 a'     16 a'      7 a"     17 a'  

                 0.779     1.291     1.695     3.517     3.929     4.515     4.567     4.854
  
  S   N    1   -0.0000    0.5137    0.0000   -0.0483   -0.0448    0.0377    0.0000    0.0173
  Px  N    1   -0.0000    0.0065    0.0000   -0.1751    0.4133   -0.0527   -0.0000    0.3273
  Py  N    1   -0.0000    0.1313    0.0000    0.3073    0.1944   -0.2789   -0.0000   -0.2204
  Pz  N    1   -0.4898   -0.0000   -0.0560   -0.0000    0.0000    0.0000   -0.1105    0.0000
  S   C    2    0.0000   -0.1843   -0.0000   -0.0598    0.1224   -0.0105    0.0000   -0.1292
  Px  C    2    0.0000   -0.2711   -0.0000   -0.0572    0.2975   -0.0989   -0.0000    0.1639
  Py  C    2    0.0000   -0.2204   -0.0000    0.2562    0.3895   -0.1653   -0.0000    0.1564
  Pz  C    2    0.5697    0.0000   -0.3031    0.0000   -0.0000   -0.0000    0.0451    0.0000
  S   C    3   -0.0000    0.0596   -0.0000   -0.0340    0.1394   -0.2675   -0.0000    0.0351
  Px  C    3   -0.0000    0.0448    0.0000   -0.4103    0.0773   -0.2536   -0.0000   -0.0193
  Py  C    3   -0.0000    0.0227   -0.0000    0.2334    0.1504   -0.0851   -0.0000    0.1495
  Pz  C    3   -0.3253   -0.0000    0.6033   -0.0000    0.0000    0.0000   -0.0133   -0.0000
  S   N    4    0.0000   -0.0326   -0.0000    0.2818   -0.0017    0.1664    0.0000    0.0737
  Px  N    4    0.0000   -0.0659   -0.0000   -0.1671    0.1473   -0.2765   -0.0000    0.0524
  Py  N    4   -0.0000    0.1135    0.0000    0.2820    0.1231    0.1720    0.0000    0.2168
  Pz  N    4   -0.1927   -0.0000   -0.5984   -0.0000    0.0000    0.0000   -0.0155    0.0000
  S   C    5    0.0000   -0.2013   -0.0000   -0.0394   -0.1228   -0.3086   -0.0000   -0.4047
  Px  C    5   -0.0000    0.2725    0.0000   -0.1376    0.2250   -0.0296   -0.0000    0.1810
  Py  C    5    0.0000   -0.2518   -0.0000    0.4906    0.0093   -0.0014   -0.0000   -0.0268
  Pz  C    5    0.5246    0.0000    0.4275    0.0000   -0.0000   -0.0000    0.0440   -0.0000
  S   C    6    0.0000   -0.2198   -0.0000   -0.0927   -0.0351   -0.0019    0.0000   -0.1400
  Px  C    6    0.0000    0.0039    0.0000   -0.0873    0.3317    0.3582    0.0000   -0.3497
  Py  C    6   -0.0000    0.5484    0.0000    0.2528    0.1540   -0.2299   -0.0000   -0.2362
  Pz  C    6   -0.0178   -0.0000   -0.0019    0.0000   -0.0000   -0.0000    0.6409    0.0000
  S   H    7   -0.0000    0.0461    0.0000   -0.1559    0.0501   -0.0327   -0.0000    0.2191
  S   H    8    0.0000   -0.0686    0.0000    0.0506    0.0966    0.0342    0.0000    0.1168
  S   H    9   -0.0000    0.0658    0.0000    0.0313   -0.1417    0.3408    0.0000    0.1701
  S   H   10    0.0924   -0.0002    0.0106   -0.0845    0.1566    0.2553   -0.5351    0.0052
  S   H   11   -0.0924   -0.0002   -0.0106   -0.0845    0.1566    0.2553    0.5351    0.0052
  S   H   12    0.0000   -0.0023    0.0000    0.0758   -0.4094   -0.2792   -0.0000    0.4597


   Root No.      25        26        27        28        29        30

                18 a'     19 a'     20 a'     21 a'     22 a'     23 a'  

                 5.119     5.257     5.587     5.810     5.984     6.346
  
  S   N    1    0.0132   -0.0026    0.0195    0.0601   -0.0403    0.0165
  Px  N    1   -0.1674    0.0576   -0.2903    0.1147    0.1106   -0.0184
  Py  N    1   -0.0581   -0.1467   -0.1482   -0.3114    0.2280    0.0583
  Pz  N    1   -0.0000    0.0000    0.0000    0.0000   -0.0000   -0.0000
  S   C    2   -0.3791   -0.2412   -0.4004    0.0172   -0.0198   -0.1094
  Px  C    2   -0.1803    0.0121    0.1365   -0.1910    0.4723    0.0442
  Py  C    2    0.2708    0.1862   -0.2519    0.1397   -0.0920   -0.0254
  Pz  C    2    0.0000   -0.0000   -0.0000   -0.0000    0.0000    0.0000
  S   C    3    0.3903    0.1637    0.0402   -0.0027   -0.1098   -0.3943
  Px  C    3   -0.1612   -0.1581    0.0960   -0.2978   -0.3836    0.0362
  Py  C    3    0.2935    0.1832    0.0388    0.0295   -0.2495    0.4542
  Pz  C    3    0.0000    0.0000   -0.0000    0.0000   -0.0000   -0.0000
  S   N    4   -0.0813   -0.0283    0.0667    0.0811    0.0383   -0.0271
  Px  N    4    0.0385   -0.0343    0.1644   -0.3017   -0.3363   -0.2461
  Py  N    4   -0.2458   -0.1337    0.2058   -0.0054   -0.1486   -0.2624
  Pz  N    4   -0.0000    0.0000    0.0000    0.0000   -0.0000   -0.0000
  S   C    5    0.1631   -0.1348    0.0449    0.1416    0.1509    0.1829
  Px  C    5   -0.1199   -0.1709    0.1866    0.5115   -0.0250    0.0037
  Py  C    5   -0.1175   -0.2024    0.3651   -0.0667   -0.1760   -0.1952
  Pz  C    5    0.0000   -0.0000    0.0000   -0.0000   -0.0000   -0.0000
  S   C    6   -0.2750    0.4819    0.1283    0.1898   -0.1286   -0.0374
  Px  C    6    0.1481   -0.0238    0.1142   -0.0531   -0.0368    0.0070
  Py  C    6   -0.1708    0.1178   -0.0415   -0.1202    0.0864    0.0285
  Pz  C    6    0.0000   -0.0000    0.0000   -0.0000    0.0000    0.0000
  S   H    7    0.0527    0.1565    0.5111   -0.2104    0.4075    0.1085
  S   H    8   -0.2062   -0.0814    0.0523   -0.1288   -0.3012    0.6304
  S   H    9    0.0035    0.3281   -0.2817   -0.4774   -0.0357   -0.0683
  S   H   10    0.2741   -0.3284   -0.0205   -0.0843    0.0277    0.0132
  S   H   11    0.2741   -0.3284   -0.0205   -0.0843    0.0277    0.0132
  S   H   12    0.0940   -0.2958   -0.1389   -0.0191    0.0697    0.0126

           SUPERDELOCALIZABILITIES

 Mulliken electronegativity:        4.263583
 Parr & Pople absolute hardness:    5.042089
 Schuurmann MO shift alpha:        -4.263583
 
 Ehomo:                            -9.305672
 Elumo:                             0.778505


  a   n        Dn(r)        De(r)   q(r) - Z(r)

  N   1    -0.407047    -0.425496    -5.081976
  C   2    -0.501662    -0.415327    -4.209832
  C   3    -0.479818    -0.409333    -4.097031
  N   4    -0.345489    -0.565953    -5.294145
  C   5    -0.529157    -0.378852    -4.032452
  C   6    -0.458154    -0.342749    -4.320747

 Total:    -2.721327    -2.537710

  a   n        piS(r)

  N   1    -0.172688
  C   2    -0.214167
  C   3    -0.211936
  N   4    -0.194502
  C   5    -0.208649
  C   6    -0.180573

 Total:    -1.182515

  a   n       homo-1         homo         lumo       lumo+1

  N   1    35.082826     7.150908    23.989914    28.113393
  C   2    12.141048    30.297629    32.452413    15.604140
  C   3     6.436583    31.521970    10.583610     0.607563
  N   4    36.948138     0.555627     3.712729     1.829262
  C   5     2.621102    29.591558    27.523448    17.816258
  C   6     2.786463     0.286343     0.031509    34.911888


              NET ATOMIC CHARGES AND DIPOLE CONTRIBUTIONS

  ATOM NO.   TYPE          CHARGE      No. of ELECS.   s-Pop       p-Pop       
    1          N          -0.081977        5.0820     1.44799     3.63399
    2          C          -0.209831        4.2098     1.11170     3.09813
    3          C          -0.097031        4.0970     1.10948     2.98755
    4          N          -0.294145        5.2941     1.73151     3.56264
    5          C          -0.032451        4.0325     1.12149     2.91097
    6          C          -0.320747        4.3207     1.08786     3.23288
    7          H           0.177246        0.8228     0.82275
    8          H           0.175992        0.8240     0.82401
    9          H           0.182571        0.8174     0.81743
   10          H           0.166600        0.8334     0.83340
   11          H           0.166600        0.8334     0.83340
   12          H           0.167173        0.8328     0.83283
 DIPOLE           X         Y         Z       TOTAL
 POINT-CHG.    -0.702     3.810     0.000     3.874
 HYBRID        -0.455     0.988    -0.000     1.087
 SUM           -1.157     4.797     0.000     4.935


          ATOMIC ORBITAL ELECTRON POPULATIONS

     Atom    s        px        py        pz   
    1  N   1.44799   1.09446   1.05001   1.48952
    2  C   1.11170   0.97050   0.96450   1.16313
    3  C   1.10948   0.92323   1.00439   1.05993
    4  N   1.73151   1.14495   1.20848   1.20921
    5  C   1.12149   0.96380   0.86694   1.08023
    6  C   1.08786   1.18401   0.87097   1.17791
    7  H   0.82275
    8  H   0.82401
    9  H   0.81743
   10  H   0.83340
   11  H   0.83340
   12  H   0.83283

          BONDING CONTRIBUTION OF EACH M.O.

  1.6147  1.6006  1.7833  1.8344  1.8973  1.8082  1.9281  1.6480  1.9519  2.0567
  2.0450  1.9988  1.7587  0.9109  1.4538  1.7445 -2.4076 -2.0140 -2.2557 -1.8810
 -1.8857 -1.9593 -1.9684 -1.9773 -2.0062 -1.9435 -1.9514 -1.9125 -1.9126 -1.9596





            (VALENCIES)   BOND ORDERS

     1  N     (3.548)     5  C 1.213     2  C 1.212     6  C 0.940     4  N 0.096     3  C 0.074
 
     2  C     (3.905)     3  C 1.534     1  N 1.212     7  H 0.952     5  C 0.132     4  N 0.035     6  C 0.016
 
     3  C     (3.947)     2  C 1.534     4  N 1.327     8  H 0.950     1  N 0.074     5  C 0.039     6  C 0.011
 
     4  N     (3.018)     5  C 1.531     3  C 1.327     1  N 0.096     2  C 0.035     6  C 0.020
 
     5  C     (3.909)     4  N 1.531     1  N 1.213     9  H 0.945     2  C 0.132     3  C 0.039     6  C 0.017
 
     6  C     (3.888)    12  H 0.963    10  H 0.960    11  H 0.960     1  N 0.940     4  N 0.020     5  C 0.017
                          2  C 0.016     3  C 0.011
 
     7  H     (0.969)     2  C 0.952
 
     8  H     (0.969)     3  C 0.950
 
     9  H     (0.967)     5  C 0.945
 
    10  H     (0.972)     6  C 0.960
 
    11  H     (0.972)     6  C 0.960
 
    12  H     (0.972)     6  C 0.963
 




 SELF-Q:    SELF OR INACTIVE CHARGE
 ACTIV-Q:   CHARGE WHICH IS USED TO FORM BONDS
 TOTAL-Q:   SELF-Q + ACTIV-Q
 FREE-VA:   TOTAL-Q - VALENCE
 STAT.PROM: TOTAL-Q - CORE CHARGE
 MULL.PROM: -CHARGE (SEE ABOVE)

       SELF-Q    ACTIV-Q   TOTAL-Q   VALENCE   FREE-VA STAT.PROM MULL.PROM


   1   1.53442   3.54756   5.08198   3.54756   0.00000   0.08198   0.08198

   2   0.30512   3.90471   4.20983   3.90471   0.00000   0.20983   0.20983

   3   0.15004   3.94699   4.09703   3.94699   0.00000   0.09703   0.09703

   4   2.27628   3.01787   5.29415   3.01787   0.00000   0.29415   0.29415

   5   0.12375   3.90870   4.03245   3.90870   0.00000   0.03245   0.03245

   6   0.43268   3.88806   4.32075   3.88806   0.00000   0.32075   0.32075

   7  -0.14583   0.96858   0.82275   0.96858   0.00000  -0.17725  -0.17725

   8  -0.14502   0.96903   0.82401   0.96903   0.00000  -0.17599  -0.17599

   9  -0.14924   0.96667   0.81743   0.96667   0.00000  -0.18257  -0.18257

  10  -0.13884   0.97224   0.83340   0.97224   0.00000  -0.16660  -0.16660

  11  -0.13884   0.97224   0.83340   0.97224   0.00000  -0.16660  -0.16660

  12  -0.13923   0.97205   0.83283   0.97205   0.00000  -0.16717  -0.16717

 CLOSED SHELL





          TOTAL ENERGY PARTITIONING

          ALL ENERGIES ARE IN ELECTRON VOLTS

            ONE-CENTER TERMS 
          E-E:  ELECTRON-ELECTRON REPULSION
          E-N:  ELECTRON-NUCLEAR ATTRACTION


   ATOM      E-E       E-N    (E-E + E-N)
   N   1   107.6015 -264.9825 -157.3810
   C   2    80.3632 -180.5293 -100.1661
   C   3    76.3176 -175.9995  -99.6820
   N   4   115.6208 -277.8057 -162.1848
   C   5    73.9975 -173.5542  -99.5568
   C   6    84.3658 -184.6932 -100.3274
   H   7     2.4452   -9.2535   -6.8083
   H   8     2.4526   -9.2676   -6.8150
   H   9     2.4136   -9.1936   -6.7800
   H  10     2.5089   -9.3732   -6.8644
   H  11     2.5089   -9.3732   -6.8644
   H  12     2.5054   -9.3668   -6.8614

              TWO-CENTER TERMS
           
          J:   RESONANCE ENERGY          E-E: ELECTRON-ELECTRON REPULSION
          K:   EXCHANGE ENERGY           E-N: ELECTRON-NUCLEAR ATTRACTION
                                         N-N: NUCLEAR-NUCLEAR REPULSION
          C:   COULOMBIC INTERACTION = E-E + E-N + N-N
          EE:  TOTAL OF ELECTRONIC AND NUCLEAR ENERGIES


     ATOM          J        K       E-E       E-N      N-N      C        EE
     PAIR
 
  C    2  N    1  -16.7740  -6.4399 165.5913 -326.4620 167.4347  6.5640 -16.6498
 
  C    3  N    1    0.3033  -0.2110 118.7071 -233.9337 115.7354  0.5089   0.6013
  C    3  C    2  -16.6396  -7.7213 136.3923 -267.3178 137.1500  6.2245 -18.1364
 
  N    4  N    1    0.3828  -0.2671 149.0211 -290.4615 141.9922  0.5518   0.6675
  N    4  C    2    0.2086  -0.0947 122.7207 -235.4604 113.3516  0.6120   0.7258
  N    4  C    3  -16.9922  -6.8490 167.0770 -328.4338 168.1170  6.7603 -17.0809
 
  C    5  N    1  -16.5117  -6.3671 159.0365 -319.6276 167.0002  6.4091 -16.4697
  C    5  C    2    0.5202  -0.3736  95.5564 -187.4810  92.3735  0.4489   0.5955
  C    5  C    3    0.1721  -0.1109  95.3735 -189.3072  94.4785  0.5449   0.6060
  C    5  N    4  -18.9580  -7.8345 167.0940 -331.3126 171.7061  7.4875 -19.3050
 
  C    6  N    1  -13.7706  -5.1215 166.0280 -322.4257 161.8818  5.4841 -13.4079
  C    6  C    2    0.2422  -0.0501  93.1924 -176.2165  83.4552  0.4311   0.6231
  C    6  C    3   -0.0219  -0.0259  66.1776 -126.5176  60.4315  0.0916   0.0438
  C    6  N    4   -0.0185  -0.0410  84.1136 -158.7241  74.8726  0.2621   0.2026
  C    6  C    5    0.2392  -0.0522  88.7706 -171.4076  82.8036  0.1666   0.3535

   ATOM          J        K       E-E       E-N      N-N      C        EE
   PAIR
  H    7  N    1    0.0682  -0.0044  24.6230  -54.2302  29.6708  0.0636   0.1274
  H    7  C    2  -12.1006  -5.3981  32.9817  -71.8635  43.9403  5.0586 -12.4401
  H    7  C    3    0.0631  -0.0038  19.5492  -42.9067  23.3637  0.0062   0.0654
  H    7  N    4   -0.0138  -0.0109  17.6557  -38.3493  20.5282 -0.1654  -0.1900
  H    7  C    5   -0.0245  -0.0199  13.7573  -30.4604  16.6994 -0.0037  -0.0481
  H    7  C    6   -0.0005  -0.0001  16.7483  -35.9314  18.9337 -0.2494  -0.2500

   ATOM          J        K       E-E       E-N      N-N      C        EE
   PAIR
  H    8  N    1   -0.0143  -0.0121  17.4088  -38.2773  20.8128 -0.0556  -0.0820
  H    8  C    2    0.0878  -0.0082  20.2766  -43.8771  23.4841 -0.1163  -0.0368
  H    8  C    3  -12.0054  -5.3753  32.1171  -70.7253  43.7794  5.1713 -12.2094
  H    8  N    4    0.0493  -0.0028  25.8727  -55.9827  29.9834 -0.1266  -0.0801
  H    8  C    5   -0.0274  -0.0207  14.0613  -31.0815  17.0109 -0.0092  -0.0573
  H    8  C    6    0.0005  -0.0016  10.6561  -22.8424  12.0271 -0.1593  -0.1603
  H    8  H    7   -0.0058  -0.0003   3.3222   -8.0696   4.9020  0.1546   0.1485

   ATOM          J        K       E-E       E-N      N-N      C        EE
   PAIR
  H    9  N    1    0.1148  -0.0109  24.3880  -53.8568  29.5119  0.0431   0.1470
  H    9  C    2   -0.0235  -0.0183  14.2311  -31.0319  16.6650 -0.1358  -0.1776
  H    9  C    3   -0.0262  -0.0189  14.0581  -31.0004  16.8854 -0.0569  -0.1021
  H    9  N    4    0.0728  -0.0052  25.5134  -55.4918  29.8444 -0.1341  -0.0665
  H    9  C    5  -12.0311  -5.3466  31.3857  -69.8683  43.7320  5.2494 -12.1284
  H    9  C    6   -0.0037  -0.0003  16.4019  -35.3207  18.6651 -0.2536  -0.2576
  H    9  H    7    0.0002  -0.0001   2.2023   -5.3709   3.2746  0.1060   0.1061
  H    9  H    8    0.0001  -0.0000   2.2325   -5.4404   3.3144  0.1065   0.1066

   ATOM          J        K       E-E       E-N      N-N      C        EE
   PAIR
  H   10  N    1    0.0366  -0.0025  25.5076  -55.7542  30.3431  0.0966   0.1306
  H   10  C    2    0.0108  -0.0060  16.3963  -35.3225  18.7794 -0.1467  -0.1419
  H   10  C    3   -0.0004  -0.0019  11.6096  -25.3022  13.6450 -0.0475  -0.0498
  H   10  N    4    0.0001  -0.0019  14.2310  -30.6568  16.2958 -0.1300  -0.1318
  H   10  C    5   -0.0105  -0.0132  13.9769  -30.6934  16.7058 -0.0107  -0.0345
  H   10  C    6  -11.1931  -5.3247  33.6387  -72.0070  42.8176  4.4494 -12.0684
  H   10  H    7   -0.0022  -0.0001   3.1723   -7.6622   4.6271  0.1372   0.1349
  H   10  H    8    0.0000  -0.0000   1.9261   -4.6485   2.8047  0.0822   0.0822
  H   10  H    9    0.0001  -0.0000   2.5831   -6.2594   3.7917  0.1153   0.1154

   ATOM          J        K       E-E       E-N      N-N      C        EE
   PAIR
  H   11  N    1    0.0366  -0.0025  25.5077  -55.7542  30.3431  0.0966   0.1306
  H   11  C    2    0.0108  -0.0060  16.3963  -35.3225  18.7794 -0.1467  -0.1419
  H   11  C    3   -0.0004  -0.0019  11.6096  -25.3022  13.6450 -0.0475  -0.0498
  H   11  N    4    0.0001  -0.0019  14.2310  -30.6568  16.2958 -0.1300  -0.1318
  H   11  C    5   -0.0105  -0.0132  13.9769  -30.6934  16.7058 -0.0107  -0.0345
  H   11  C    6  -11.1931  -5.3247  33.6387  -72.0070  42.8176  4.4494 -12.0684
  H   11  H    7   -0.0022  -0.0001   3.1723   -7.6622   4.6271  0.1372   0.1349
  H   11  H    8    0.0000  -0.0000   1.9261   -4.6485   2.8047  0.0822   0.0822
  H   11  H    9    0.0001  -0.0000   2.5831   -6.2594   3.7917  0.1153   0.1154
  H   11  H   10   -0.0348  -0.0006   4.8797  -11.7103   7.1062  0.2756   0.2402

   ATOM          J        K       E-E       E-N      N-N      C        EE
   PAIR
  H   12  N    1    0.0128  -0.0007  25.4862  -55.7308  30.3413  0.0967   0.1088
  H   12  C    2   -0.0178  -0.0158  13.9429  -30.0763  16.0113 -0.1221  -0.1556
  H   12  C    3    0.0002  -0.0002  10.9708  -23.9259  12.9114 -0.0437  -0.0437
  H   12  N    4   -0.0002  -0.0001  15.1219  -32.5751  17.3117 -0.1415  -0.1418
  H   12  C    5    0.0176  -0.0020  16.6365  -36.5010  19.8506 -0.0140   0.0017
  H   12  C    6  -11.2291  -5.3442  33.6390  -72.0435  42.8794  4.4748 -12.0985
  H   12  H    7   -0.0001  -0.0000   2.4432   -5.9032   3.5656  0.1057   0.1055
  H   12  H    8   -0.0000  -0.0001   1.7982   -4.3415   2.6204  0.0771   0.0770
  H   12  H    9   -0.0111  -0.0008   3.5082   -8.5042   5.1572  0.1612   0.1494
  H   12  H   10   -0.0525  -0.0014   4.8863  -11.7301   7.1217  0.2778   0.2239
  H   12  H   11   -0.0525  -0.0014   4.8863  -11.7301   7.1217  0.2778   0.2239
 

                    Total contribution from hydrogen bonds:         0.000 disp.:    0.000 Tot:     0.000 kcal/mol




***  SUMMARY OF ENERGY PARTITION  ***
 ---------------------------------------
     ONE-CENTER TERMS

 ELECTRON-NUCLEAR  (ONE-ELECTRON)        -1313.3922 EV
 ELECTRON-ELECTRON (TWO-ELECTRON)          553.1008 EV

 TOTAL OF ONE-CENTER TERMS                -760.2914 EV
 ---------------------------------------
     TWO-CENTER TERMS

 RESONANCE ENERGY                         -167.1231 EV
 EXCHANGE ENERGY                           -73.8863 EV

 EXCHANGE + RESONANCE ENERGY:             -241.0094 EV

 ELECTRON-ELECTRON REPULSION              2638.5775 EV
 ELECTRON-NUCLEAR ATTRACTION             -5338.4516 EV
 NUCLEAR-NUCLEAR REPULSION                2771.4313 EV

 TOTAL ELECTROSTATIC INTERACTION            71.5572 EV

 GRAND TOTAL OF TWO-CENTER TERMS          -169.4522 EV
 ---------------------------------------
 ETOT (EONE + ETWO)                       -929.7437 EV


 ******************** TDHF POLARIZABILITIES ********************



          MOLECULAR WEIGHT =   82.10



          ROTATIONAL CONSTANTS IN CM(-1)

          A =    0.29343293   B =    0.11678993   C =    0.08490020



           PRINCIPAL MOMENTS OF INERTIA IN UNITS OF 10**(-40)*GRAM-CM**2

          A =       95.3974   B =      239.6846   C =      329.7136


 ROTATION MATRIX FOR ORIENTATION OF MOLECULE:

         0.003430    0.999994    0.000000
        -0.999994    0.003430    0.000000
         0.000000   -0.000000    1.000000


          CARTESIAN COORDINATES 

    NO.       ATOM         X         Y         Z

     1         N       -0.6862   -0.0008    0.0000
     2         C        0.1162   -1.1491    0.0000
     3         C        1.4378   -0.6905   -0.0000
     4         N        1.4630    0.7026   -0.0000
     5         C        0.1717    1.1127    0.0000
     6         C       -2.1506    0.0119   -0.0000
     7         H       -0.2738   -2.1462    0.0000
     8         H        2.3466   -1.2658   -0.0000
     9         H       -0.1661    2.1354    0.0000
    10         H       -2.5500   -0.4998    0.8955
    11         H       -2.5500   -0.4998   -0.8955
    12         H       -2.5383    1.0456    0.0000


 ENERGY OF "REORIENTED" SYSTEM WITHOUT FIELD:       32.8384685852


  NFREQ=  3  IWFLB=  0  IBET=  1  IGAM=  1
  ATOL= 0.10000D-02  BTOL= 0.10000D-02    MAXITU=  500    MAXITA=  150


 *****************************************************************
 CALCULATION OF STATIC FIELD QUANTITIES
 *****************************************************************

 +++++ ALPHA AT       0.00000 EV.

                           COMPONENTS OF ALPHA

                     *X           *Y           *Z
           *=X:      76.2629       0.2278       0.0007
           *=Y:       0.2269      69.5373       0.0009
           *=Z:      -0.0000      -0.0000      41.0840

  ISOTROPIC AVERAGE ALPHA =      62.29472 A.U. =      9.23113 ANG.**3

 +++++ BETA (SECOND HARMONIC GENERATION) AT       0.00000 EV.

                              COMPONENTS OF BETA
            *XX         *XY         *YY         *XZ         *YZ         *ZZ
   *=X    86.65174    60.01295    43.09332     0.01130     0.01590    32.73456
   *=Y    59.98567    43.14706   -56.24539     0.01590    -0.01455    10.50070
   *=Z    -0.00000    -0.00000    -0.00000    32.73864    10.49787    -0.00157


 AVERAGE BETAX(SHG) VALUE AT   0.00000 EV =         97.5109 a.u. =  0.842437E-30 ESU
 AVERAGE BETAY(SHG) VALUE AT   0.00000 EV =          8.5544 a.u. =  0.739048E-31 ESU
 AVERAGE BETAZ(SHG) VALUE AT   0.00000 EV =         -0.0022 a.u. = -0.193859E-34 ESU



 AVERAGE BETA (SHG) VALUE AT   0.00000 EV =         97.8854 a.u. =  0.845673E-30 ESU
   (1 a.u. = 8.639418X10-33 esu)



 +++++ ALPHA AT       0.00000 EV.

                           COMPONENTS OF ALPHA

                     *X           *Y           *Z
           *=X:      76.2634       0.2278       0.0007
           *=Y:       0.2273      69.5373       0.0009
           *=Z:      -0.0000      -0.0000      41.0840

  ISOTROPIC AVERAGE ALPHA =      62.29491 A.U. =      9.23115 ANG.**3


 GAMMA (THIRD HARMONIC GENERATION) AT    0.00000 EV.


 GAMMA(X,X,X,X) =          6729.46433
 GAMMA(Y,Y,Y,Y) =          4762.22374
 GAMMA(Z,Z,Z,Z) =            -6.07710
 GAMMA(X,X,Y,Y) =          -433.46474
 GAMMA(X,X,Z,Z) =           682.22168
 GAMMA(Y,Y,X,X) =          -433.30151
 GAMMA(Y,Y,Z,Z) =           436.54090
 GAMMA(Z,Z,X,X) =           682.21630
 GAMMA(Z,Z,Y,Y) =           436.52095


 AVERAGE GAMMA VALUE AT    0.00000 =          2571.26891 a.u. =         1295.07167 ESU (X10-39)




 **********************************************************************
 CALCULATION FOR A FREQUENCY OF    0.25000 EV  =       0.00919 A.U. 
                  WAVELENGTH OF    4959.37 NM  =    2016.38525 CM(-1)
 **********************************************************************

 +++++ ALPHA AT       0.25000 EV.

                           COMPONENTS OF ALPHA

                     *X           *Y           *Z
           *=X:      76.3200       0.2374       0.0007
           *=Y:       0.2374      69.5860       0.0009
           *=Z:       0.0001      -0.0000      41.0941

  ISOTROPIC AVERAGE ALPHA =      62.33337 A.U. =      9.23685 ANG.**3

 +++++ BETA (SECOND HARMONIC GENERATION) AT       0.25000 EV.

                              COMPONENTS OF BETA
            *XX         *XY         *YY         *XZ         *YZ         *ZZ
   *=X    87.04793    60.94966    43.26153     0.00517     0.01551    32.87006
   *=Y    60.84931    44.08783   -57.33491     0.01388    -0.00664    10.49764
   *=Z    -0.00048    -0.00169    -0.00000    33.00167    10.54530    -0.00184


 AVERAGE BETAX(SHG) VALUE AT   0.25000 EV =         98.2909 a.u. =  0.849176E-30 ESU
 AVERAGE BETAY(SHG) VALUE AT   0.25000 EV =          8.4664 a.u. =  0.731450E-31 ESU
 AVERAGE BETAZ(SHG) VALUE AT   0.25000 EV =         -0.0018 a.u. = -0.154829E-34 ESU



 AVERAGE BETA (SHG) VALUE AT   0.25000 EV =         98.6548 a.u. =  0.852320E-30 ESU
   (1 a.u. = 8.639418X10-33 esu)



 +++++ ALPHA AT       0.75000 EV.

                           COMPONENTS OF ALPHA

                     *X           *Y           *Z
           *=X:      76.7827       0.3206       0.0009
           *=Y:       0.3204      69.9867       0.0014
           *=Z:       0.0000      -0.0000      41.1735

  ISOTROPIC AVERAGE ALPHA =      62.64767 A.U. =      9.28343 ANG.**3


 GAMMA (THIRD HARMONIC GENERATION) AT    0.25000 EV.


 GAMMA(X,X,X,X) =          6852.13472
 GAMMA(Y,Y,Y,Y) =          4940.91210
 GAMMA(Z,Z,Z,Z) =            -5.68883
 GAMMA(X,X,Y,Y) =          -450.42250
 GAMMA(X,X,Z,Z) =           702.73442
 GAMMA(Y,Y,X,X) =          -459.28242
 GAMMA(Y,Y,Z,Z) =           453.00831
 GAMMA(Z,Z,X,X) =           696.87217
 GAMMA(Z,Z,Y,Y) =           442.32271


 AVERAGE GAMMA VALUE AT    0.25000 =          2634.51814 a.u. =         1326.92843 ESU (X10-39)




 **********************************************************************
 CALCULATION FOR A FREQUENCY OF    0.50000 EV  =       0.01837 A.U. 
                  WAVELENGTH OF    2479.68 NM  =    4032.77050 CM(-1)
 **********************************************************************

 +++++ ALPHA AT       0.50000 EV.

                           COMPONENTS OF ALPHA

                     *X           *Y           *Z
           *=X:      76.4919       0.2680       0.0008
           *=Y:       0.2679      69.7346       0.0011
           *=Z:       0.0000      -0.0000      41.1238

  ISOTROPIC AVERAGE ALPHA =      62.45012 A.U. =      9.25415 ANG.**3

 +++++ BETA (SECOND HARMONIC GENERATION) AT       0.50000 EV.

                              COMPONENTS OF BETA
            *XX         *XY         *YY         *XZ         *YZ         *ZZ
   *=X    88.25261    63.91599    43.81649     0.00229     0.01675    33.26648
   *=Y    63.50581    47.16995   -60.81820     0.01548    -0.00345    10.48240
   *=Z    -0.00078    -0.00160    -0.00000    33.81317    10.69076    -0.00225


 AVERAGE BETAX(SHG) VALUE AT   0.50000 EV =        100.7614 a.u. =  0.870520E-30 ESU
 AVERAGE BETAY(SHG) VALUE AT   0.50000 EV =          8.1494 a.u. =  0.704063E-31 ESU
 AVERAGE BETAZ(SHG) VALUE AT   0.50000 EV =         -0.0020 a.u. = -0.169917E-34 ESU



 AVERAGE BETA (SHG) VALUE AT   0.50000 EV =        101.0904 a.u. =  0.873362E-30 ESU
   (1 a.u. = 8.639418X10-33 esu)



 +++++ ALPHA AT       1.50000 EV.

                           COMPONENTS OF ALPHA

                     *X           *Y           *Z
           *=X:      78.4568       0.6587       0.0013
           *=Y:       0.6583      71.4624       0.0018
           *=Z:       0.0000      -0.0000      41.4527

  ISOTROPIC AVERAGE ALPHA =      63.79061 A.U. =      9.45279 ANG.**3


 GAMMA (THIRD HARMONIC GENERATION) AT    0.50000 EV.


 GAMMA(X,X,X,X) =          7246.17727
 GAMMA(Y,Y,Y,Y) =          5547.31387
 GAMMA(Z,Z,Z,Z) =            -4.40999
 GAMMA(X,X,Y,Y) =          -511.33267
 GAMMA(X,X,Z,Z) =           771.32784
 GAMMA(Y,Y,X,X) =          -555.05192
 GAMMA(Y,Y,Z,Z) =           510.27597
 GAMMA(Z,Z,X,X) =           744.29522
 GAMMA(Z,Z,Y,Y) =           460.05032


 AVERAGE GAMMA VALUE AT    0.50000 =          2841.72918 a.u. =         1431.29447 ESU (X10-39)


 ******************** FINITE-FIELD POLARIZABILITIES ********************

    THE F-F METHOD IS PERFORMED USING BOTH AN ENERGY
    AND DIPOLE MOMENT EXPANSION.  THESE RESULTS ARE
    LISTED BELOW AS "H.o.F." AND "Dipole", RESPECTIVELY.

          MOLECULAR WEIGHT =   82.10



          ROTATIONAL CONSTANTS IN CM(-1)

          A =    0.29343293   B =    0.11678993   C =    0.08490020



           PRINCIPAL MOMENTS OF INERTIA IN UNITS OF 10**(-40)*GRAM-CM**2

          A =       95.3974   B =      239.6846   C =      329.7136


 ROTATION MATRIX FOR ORIENTATION OF MOLECULE:

         0.003430    0.999994    0.000000
        -0.999994    0.003430    0.000000
         0.000000   -0.000000    1.000000


          CARTESIAN COORDINATES 

    NO.       ATOM         X         Y         Z

     1         N       -0.6862   -0.0008    0.0000
     2         C        0.1162   -1.1491    0.0000
     3         C        1.4378   -0.6905   -0.0000
     4         N        1.4630    0.7026   -0.0000
     5         C        0.1717    1.1127    0.0000
     6         C       -2.1506    0.0119   -0.0000
     7         H       -0.2738   -2.1462    0.0000
     8         H        2.3466   -1.2658   -0.0000
     9         H       -0.1661    2.1354    0.0000
    10         H       -2.5500   -0.4998    0.8955
    11         H       -2.5500   -0.4998   -0.8955
    12         H       -2.5383    1.0456    0.0000


 ENERGY OF "REORIENTED" SYSTEM WITHOUT FIELD:       32.83847 Kcal/mol


 APPLIED ELECTRIC FIELD MAGNITUDE:         0.10284 VOLTS PER ANGSTROM
    Step  1 of 36 done (+X)
    Step  2 of 36 done (-X)
    Step  3 of 36 done (+2X)
    Step  4 of 36 done (-2X)
    Step  5 of 36 done (+Y)
    Step  6 of 36 done (-Y)
    Step  7 of 36 done (+2Y)
    Step  8 of 36 done (-2Y)
    Step  9 of 36 done (+Y+X)
    Step 10 of 36 done (+Y-X)
    Step 11 of 36 done (-Y-X)
    Step 12 of 36 done (-Y+X)
    Step 13 of 36 done (+2Y+2X)
    Step 14 of 36 done (+2Y-2X)
    Step 15 of 36 done (-2Y-2X)
    Step 16 of 36 done (-2Y+2X)
    Step 17 of 36 done (+Z)
    Step 18 of 36 done (-Z)
    Step 19 of 36 done (+2Z)
    Step 20 of 36 done (-2Z)
    Step 21 of 36 done (+Z+X)
    Step 22 of 36 done (+Z-X)
    Step 23 of 36 done (-Z-X)
    Step 24 of 36 done (-Z+X)
    Step 25 of 36 done (+2Z+2X)
    Step 26 of 36 done (+2Z-2X)
    Step 27 of 36 done (-2Z-2X)
    Step 28 of 36 done (-2Z+2X)
    Step 29 of 36 done (+Z+Y)
    Step 30 of 36 done (+Z-Y)
    Step 31 of 36 done (-Z-Y)
    Step 32 of 36 done (-Z+Y)
    Step 33 of 36 done (+2Z+2Y)
    Step 34 of 36 done (+2Z-2Y)
    Step 35 of 36 done (-2Z-2Y)
    Step 36 of 36 done (-2Z+2Y)


 ****************************** DIPOLE ******************************


                     H.o.F.         Dipole

     X              1.888857       1.888792
     Y              0.448877       0.448864
     X              0.000000       0.000048


 MAGNITUDE:         1.941461       1.941395  (A.U.)
                    4.934701       4.934534  (DEBYE)


 ****************************** POLARIZABILITY ********************



 Polarizability Tensor from Heat of Formation:


                     1          2          3
 ------------------------------------------
          1  76.264516
          2   0.228516  69.538300
          3  -0.000061  -0.000063  41.084705




    ROOT NO.    1           2           3

            41.08471    69.53055    76.27227
  
         1   0.00000    -0.03392    -0.99942
         2   0.00000     0.99942    -0.03392
         3   1.00000    -0.00000     0.00000

 Polarizability Tensor from Dipole Moment:


                     1          2          3
 ------------------------------------------
          1  76.262479
          2   0.228989  69.534738
          3  -0.001200  -0.000098  41.071510




    ROOT NO.    1           2           3

            41.07151    69.52695    76.27026
  
         1   0.00003    -0.03398    -0.99942
         2   0.00000     0.99942    -0.03398
         3   1.00000    -0.00000     0.00003


 Average Polarizability from:     H.o.F         Dipole
                               62.295840      62.289575  A.U.
                                9.230998       9.230069  ANG.**3
                            1.846150D-23   1.845964D-23  ESU
 *******************************************************************************
 **                                                                           **
 **                              MOPAC v22.1.1                                **
 **                                                                           **
 *******************************************************************************
 **          Digital Object Identifier (DOI): 10.5281/zenodo.6511958          **
 **    Visit the DOI location for information on how to cite this program.    **
 *******************************************************************************

                              PM6 CALCULATION RESULTS

 *******************************************************************************
 *  CALCULATION DONE:                                Tue May  7 17:21:07 2024  *
 *  PM6        - The PM6 Hamiltonian to be used
 *  OLDGEO     - PREVIOUS GEOMETRY TO BE USED
 *  FORCE      - FORCE CALCULATION SPECIFIED
 *  T=         - A TIME OF 172800.0 SECONDS REQUESTED
 *  DUMP=N     - RESTART FILE WRITTEN EVERY 7200.0 SECONDS REQUESTED
 *  THERMO     - THERMODYNAMIC QUANTITIES TO BE CALCULATED
 *******************************************************************************
PM6 OLDGEO FORCE THERMO
 mi
 All coordinates are Cartesian
   ATOM   CHEMICAL          X               Y               Z
  NUMBER   SYMBOL      (ANGSTROMS)     (ANGSTROMS)     (ANGSTROMS)
 
     1       N         -0.23786800  *   0.10281559  *   0.00000000  *
     2       C          0.56447623  *  -1.04548909  *  -0.00000000  *
     3       C          1.88608494  *  -0.58684763  *  -0.00000000  *
     4       N          1.91129956  *   0.80625360  *  -0.00000000  *
     5       C          0.62000794  *   1.21633736  *   0.00000000  *
     6       C         -1.70226018  *   0.11555890  *  -0.00000001  *
     7       H          0.17454022  *  -2.04257305  *  -0.00000000  *
     8       H          2.79494984  *  -1.16209097  *  -0.00000000  *
     9       H          0.28218480  *   2.23907641  *  -0.00000000  *
    10       H         -2.10171559  *  -0.39617015  *   0.89549215  *
    11       H         -2.10171558  *  -0.39617014  *  -0.89549213  *
    12       H         -2.08998417  *   1.14929919  *   0.00000000  *
 


          CARTESIAN COORDINATES 

    NO.       ATOM           X           Y           Z

     1         N         -0.2379      0.1028      0.0000
     2         C          0.5645     -1.0455     -0.0000
     3         C          1.8861     -0.5868     -0.0000
     4         N          1.9113      0.8063     -0.0000
     5         C          0.6200      1.2163      0.0000
     6         C         -1.7023      0.1156     -0.0000
     7         H          0.1745     -2.0426     -0.0000
     8         H          2.7949     -1.1621     -0.0000
     9         H          0.2822      2.2391     -0.0000
    10         H         -2.1017     -0.3962      0.8955
    11         H         -2.1017     -0.3962     -0.8955
    12         H         -2.0900      1.1493      0.0000

 General Reference for PM6:
 "Optimization of Parameters for Semiempirical Methods V: Modification of NDDO Approximations
 and Application to 70 Elements", J. J. P. Stewart, J. Mol. Mod., 13, 1173-1213 (2007)
 URL: https://link.springer.com/article/10.1007/s00894-007-0233-4

           Empirical Formula: C4 H6 N2  =    12 atoms



      MOLECULAR POINT GROUP   :   Cs  


      RHF CALCULATION, NO. OF DOUBLY OCCUPIED LEVELS = 16



          HEAT OF FORMATION =      32.838469 KCALS/MOLE


          CARTESIAN COORDINATE DERIVATIVES

   NUMBER  ATOM         X            Y            Z

     1       N      0.002615    -0.004985     0.000001
     2       C     -0.001902    -0.006124     0.000000
     3       C     -0.023070     0.014949    -0.000002
     4       N      0.016609    -0.008509    -0.000000
     5       C     -0.007904     0.005125     0.000001
     6       C     -0.000578     0.007499    -0.000017
     7       H      0.007347     0.002451     0.000000
     8       H      0.003418     0.003080     0.000001
     9       H      0.011057    -0.001136    -0.000001
    10       H     -0.002902    -0.007075     0.005485
    11       H     -0.002907    -0.007064    -0.005468
    12       H     -0.001783     0.001790     0.000000
 


          GRADIENT NORM =   0.04135

          MOLECULAR WEIGHT =   82.10



          ROTATIONAL CONSTANTS IN CM(-1)

          A =    0.29343293   B =    0.11678993   C =    0.08490020



           PRINCIPAL MOMENTS OF INERTIA IN UNITS OF 10**(-40)*GRAM-CM**2

          A =       95.3974   B =      239.6846   C =      329.7136


          ORIENTATION OF MOLECULE IN FORCE CALCULATION

    NO.       ATOM         X         Y         Z

     1          N      -0.3923   -0.5630   -0.0000
     2          C       1.0085   -0.5630   -0.0000
     3          C       1.3895    0.7831   -0.0000
     4          N       0.2620    1.6017   -0.0000
     5          C      -0.8137    0.7780   -0.0000
     6          C      -1.2415   -1.7561   -0.0000
     7          H       1.6025   -1.4537   -0.0000
     8          H       2.3816    1.1986    0.0000
     9          H      -1.8456    1.0869   -0.0000
    10          H      -1.0508   -2.3766    0.8955
    11          H      -1.0508   -2.3766   -0.8955
    12          H      -2.3110   -1.4818   -0.0000


    FIRST DERIVATIVES WILL BE USED IN THE CALCULATION OF SECOND DERIVATIVES

          ESTIMATED TIME TO COMPLETE CALCULATION =        0.28 SECONDS

    FOR POINT-GROUP Cs   THERE ARE   2 UNIQUE SYMMETRY FUNCTIONS.

 STEP:   1 TIME =     0.01 SECS, INTEGRAL =      0.01 TIME LEFT: 172799.99
 STEP:   2 TIME =     0.01 SECS, INTEGRAL =      0.02 TIME LEFT: 172799.98
 STEP:   3 TIME =     0.01 SECS, INTEGRAL =      0.02 TIME LEFT: 172799.98
 STEP:   4 TIME =     0.00 SECS, INTEGRAL =      0.03 TIME LEFT: 172799.97
 STEP:   5 TIME =     0.01 SECS, INTEGRAL =      0.04 TIME LEFT: 172799.96
 STEP:   6 TIME =     0.01 SECS, INTEGRAL =      0.04 TIME LEFT: 172799.96
 STEP:   7 TIME =     0.01 SECS, INTEGRAL =      0.05 TIME LEFT: 172799.95
 STEP:   8 TIME =     0.01 SECS, INTEGRAL =      0.06 TIME LEFT: 172799.94
 STEP:   9 TIME =     0.00 SECS, INTEGRAL =      0.06 TIME LEFT: 172799.94
 STEP:  10 TIME =     0.01 SECS, INTEGRAL =      0.07 TIME LEFT: 172799.93
 STEP:  11 TIME =     0.01 SECS, INTEGRAL =      0.08 TIME LEFT: 172799.92
 STEP:  12 TIME =     0.00 SECS, INTEGRAL =      0.08 TIME LEFT: 172799.92
 STEP:  13 TIME =     0.01 SECS, INTEGRAL =      0.09 TIME LEFT: 172799.91
 STEP:  14 TIME =     0.01 SECS, INTEGRAL =      0.10 TIME LEFT: 172799.90
 STEP:  15 TIME =     0.01 SECS, INTEGRAL =      0.11 TIME LEFT: 172799.89
 STEP:  16 TIME =     0.01 SECS, INTEGRAL =      0.11 TIME LEFT: 172799.89
 STEP:  17 TIME =     0.00 SECS, INTEGRAL =      0.12 TIME LEFT: 172799.88
 STEP:  18 TIME =     0.01 SECS, INTEGRAL =      0.12 TIME LEFT: 172799.88
 STEP:  19 TIME =     0.01 SECS, INTEGRAL =      0.13 TIME LEFT: 172799.87
 STEP:  20 TIME =     0.00 SECS, INTEGRAL =      0.14 TIME LEFT: 172799.86
 STEP:  21 TIME =     0.01 SECS, INTEGRAL =      0.14 TIME LEFT: 172799.86
 STEP:  22 TIME =     0.01 SECS, INTEGRAL =      0.15 TIME LEFT: 172799.85
 STEP:  23 TIME =     0.00 SECS, INTEGRAL =      0.16 TIME LEFT: 172799.84
 STEP:  24 TIME =     0.01 SECS, INTEGRAL =      0.16 TIME LEFT: 172799.84
 STEP:  25 TIME =     0.01 SECS, INTEGRAL =      0.17 TIME LEFT: 172799.83
 STEP:  26 TIME =     0.01 SECS, INTEGRAL =      0.18 TIME LEFT: 172799.82
 STEP:  27 TIME =     0.00 SECS, INTEGRAL =      0.18 TIME LEFT: 172799.82
 STEP:  28 TIME =     0.01 SECS, INTEGRAL =      0.19 TIME LEFT: 172799.81
 STEP:  29 TIME =     0.01 SECS, INTEGRAL =      0.20 TIME LEFT: 172799.80
 STEP:  30 TIME =     0.00 SECS, INTEGRAL =      0.20 TIME LEFT: 172799.80
 STEP:  31                       INTEGRAL =      0.20 TIME LEFT: 172799.80
 STEP:  32                       INTEGRAL =      0.20 TIME LEFT: 172799.80
 STEP:  33                       INTEGRAL =      0.20 TIME LEFT: 172799.80
 STEP:  34 TIME =     0.01 SECS, INTEGRAL =      0.21 TIME LEFT: 172799.79
 STEP:  35 TIME =     0.01 SECS, INTEGRAL =      0.22 TIME LEFT: 172799.78
 STEP:  36 TIME =     0.00 SECS, INTEGRAL =      0.22 TIME LEFT: 172799.78

(To convert to Hartree/Bohr^2, multiply by (10^(-21) x N x a0^2)/(4.184 x 627.51) =  0.0642)


           FORCE MATRIX IN MILLIDYNES/ANGSTROM


                  N  1       C  2       C  3       N  4       C  5       C  6
 ------------------------------------------------------------------------------
     N    1  16.779224
     C    2   5.197194  14.521485
     C    3   1.872889   5.912168  14.284263
     N    4   2.269554   2.077571   5.333765  12.462630
     C    5   4.794745   1.375202   2.062783   6.359786  14.264636
     C    6   4.675944   0.523809   0.101679   0.185808   0.417881  11.606022
     H    7   0.741000   3.585225   0.563748   0.094216   0.094930   0.017709
     H    8   0.077590   0.598667   3.555620   0.715399   0.127567   0.022349
     H    9   0.707689   0.098634   0.124789   0.711990   3.478264   0.022189
     H   10   0.750784   0.041061   0.010671   0.030643   0.057647   3.366695
     H   11   0.749084   0.041675   0.010424   0.030903   0.059066   3.366788
     H   12   0.767736   0.065349   0.025328   0.032389   0.071106   3.404188


                  H  7       H  8       H  9       H 10       H 11       H 12
 ------------------------------------------------------------------------------
     H    7   4.410404
     H    8   0.020200   4.391740
     H    9   0.015569   0.013625   4.364664
     H   10   0.008400   0.003687   0.004664   4.150013
     H   11   0.008314   0.003757   0.004660   0.428283   4.150013
     H   12   0.002011   0.003347   0.012325   0.424979   0.425115   4.185694


          HEAT OF FORMATION =      32.838469 KCALS/MOLE

          ZERO POINT ENERGY      56.685 KCAL/MOL


           NORMAL COORDINATE ANALYSIS (Total motion = 1 Angstrom)


   Root No.       1         2         3         4         5         6         7         8

                 1 A"      2 A"      1 A'      3 A"      4 A"      2 A'      3 A'      5 A"  

                  24.2     177.2     348.0     476.3     561.1     676.8     823.7     828.5
  
           1   -0.0000   -0.0000   -0.0494   -0.0000   -0.0000    0.0343    0.0436   -0.0000
           2    0.0000    0.0000    0.0346    0.0000    0.0000    0.0492   -0.0313    0.0000
           3    0.0095    0.1022   -0.0000    0.1012    0.0095   -0.0000    0.0000    0.0160
           4   -0.0000   -0.0000   -0.0508    0.0000   -0.0000    0.0222   -0.0054    0.0000
           5    0.0000    0.0000   -0.0090   -0.0000    0.0000   -0.0590   -0.0909   -0.0000
           6    0.0206    0.0349    0.0000   -0.0887    0.0344    0.0000    0.0000   -0.0612
           7   -0.0000    0.0000    0.0015   -0.0000    0.0000   -0.0318   -0.1332    0.0000
           8    0.0000   -0.0000   -0.0289    0.0000   -0.0000   -0.0582   -0.0318   -0.0000
           9    0.0077   -0.0472    0.0000    0.0385   -0.0850    0.0000   -0.0000   -0.0188
          10    0.0000    0.0000    0.0284   -0.0000   -0.0000   -0.0392   -0.0069   -0.0000
          11   -0.0000   -0.0000    0.0088    0.0000    0.0000   -0.0439    0.1435    0.0000
          12   -0.0146   -0.0420   -0.0000    0.0194    0.1159    0.0000   -0.0000    0.0165
          13    0.0000   -0.0000   -0.0074    0.0000    0.0000   -0.0583    0.0800    0.0000
          14   -0.0000    0.0000    0.0505   -0.0000   -0.0000    0.0020    0.0270   -0.0000
          15   -0.0162    0.0356   -0.0000   -0.0770   -0.0663   -0.0000    0.0000   -0.0317
          16    0.0000    0.0000    0.0605   -0.0000   -0.0000    0.0699    0.0121   -0.0000
          17   -0.0000   -0.0000   -0.0442    0.0000    0.0000    0.0995   -0.0105    0.0000
          18   -0.0056   -0.0673    0.0000    0.0129    0.0011   -0.0000   -0.0000    0.0022
          19   -0.0000   -0.0000   -0.0858    0.0000   -0.0000   -0.0330    0.0853   -0.0000
          20    0.0000    0.0000   -0.0333   -0.0000    0.0000   -0.0948   -0.0302    0.0000
          21    0.0375    0.0613    0.0000   -0.2439    0.1543    0.0000   -0.0000    0.4191
          22   -0.0000    0.0000    0.0170   -0.0000    0.0000   -0.0490   -0.0748   -0.0000
          23    0.0000   -0.0000   -0.0665    0.0000   -0.0000   -0.0177   -0.1633    0.0000
          24    0.0138   -0.1017    0.0000    0.1328   -0.2862   -0.0000    0.0000    0.2197
          25    0.0000   -0.0000    0.0053    0.0000    0.0000   -0.0713    0.0424   -0.0000
          26   -0.0000    0.0000    0.0899   -0.0000   -0.0000   -0.0445   -0.0990    0.0000
          27   -0.0314    0.0704   -0.0000   -0.1894   -0.2388    0.0000    0.0000    0.2075
          28    0.1920   -0.0826    0.1384   -0.0295   -0.0015    0.0675   -0.0165    0.0007
          29   -0.1480   -0.0683   -0.0245   -0.0317    0.0003    0.0941   -0.0194    0.0005
          30   -0.1497   -0.0977   -0.0010   -0.0021    0.0020    0.0010   -0.0003    0.0026
          31   -0.1920    0.0826    0.1384    0.0295    0.0015    0.0675   -0.0165   -0.0007
          32    0.1480    0.0683   -0.0245    0.0317   -0.0003    0.0941   -0.0194   -0.0005
          33   -0.1497   -0.0977    0.0010   -0.0021    0.0020   -0.0010    0.0003    0.0026
          34   -0.0000    0.0000    0.0321    0.0000   -0.0000    0.0630    0.0238   -0.0000
          35    0.0000   -0.0000   -0.1688   -0.0000    0.0000    0.0824    0.0386   -0.0000
          36    0.2733   -0.1475   -0.0000   -0.0095    0.0035   -0.0000   -0.0000    0.0016


   Root No.       9        10        11        12        13        14        15        16

                 6 A"      7 A"      4 A'      5 A'      8 A"      6 A'      7 A'      8 A'  

                 861.2     890.7    1011.7    1048.6    1057.5    1120.7    1138.1    1199.2
  
           1   -0.0000    0.0000    0.0124    0.0112    0.0000    0.0009   -0.0112   -0.0095
           2    0.0000   -0.0000    0.0139   -0.0116   -0.0000   -0.0069   -0.0097   -0.0065
           3    0.0043   -0.0068   -0.0000   -0.0000    0.0334    0.0000    0.0000   -0.0000
           4   -0.0000   -0.0000    0.0993   -0.0381   -0.0000    0.0015   -0.0107   -0.0498
           5    0.0000    0.0000   -0.0280    0.0154    0.0000    0.0014   -0.0199   -0.0067
           6    0.0573    0.0466   -0.0000   -0.0000    0.0009    0.0000   -0.0000   -0.0000
           7    0.0000    0.0000    0.0127    0.0030    0.0000   -0.0287   -0.0425    0.0049
           8   -0.0000   -0.0000   -0.0398    0.0008    0.0000   -0.0079    0.0164   -0.0193
           9   -0.0234   -0.1006   -0.0000   -0.0000    0.0013   -0.0000   -0.0000    0.0000
          10   -0.0000   -0.0000   -0.0277    0.0029   -0.0000    0.0120    0.0148    0.0252
          11    0.0000    0.0000    0.0025   -0.0095   -0.0000   -0.0296   -0.0192   -0.0151
          12    0.0261    0.0145    0.0000   -0.0000   -0.0028   -0.0000    0.0000    0.0000
          13    0.0000   -0.0000   -0.0397   -0.0183   -0.0000   -0.0221    0.0331    0.0190
          14   -0.0000    0.0000    0.1082    0.0233    0.0000    0.0176   -0.0299    0.0298
          15   -0.0898    0.0293   -0.0000    0.0000    0.0062   -0.0000    0.0000    0.0000
          16   -0.0000    0.0000   -0.0340    0.0563    0.0000   -0.0067    0.0191    0.0099
          17   -0.0000   -0.0000   -0.0680   -0.0282   -0.0000    0.0095    0.0115    0.0089
          18   -0.0012   -0.0013    0.0000    0.0000   -0.0765    0.0000    0.0000   -0.0000
          19    0.0000    0.0000    0.0421   -0.0251   -0.0000    0.3779   -0.0388    0.1490
          20   -0.0000   -0.0000   -0.0672    0.0189    0.0000    0.2579   -0.0344    0.1258
          21   -0.2588   -0.1257   -0.0000   -0.0000    0.0040    0.0000   -0.0000   -0.0000
          22   -0.0000   -0.0000   -0.0856    0.0331    0.0000    0.0308   -0.1523   -0.1213
          23    0.0000    0.0000    0.2043   -0.0789   -0.0000   -0.1477    0.2942    0.2892
          24    0.0284    0.4947   -0.0000   -0.0000   -0.0072    0.0000   -0.0000   -0.0000
          25   -0.0000    0.0000   -0.0426   -0.0079   -0.0000    0.0286    0.1435   -0.0701
          26    0.0000   -0.0000    0.0994    0.0433    0.0000    0.1786    0.3438   -0.2860
          27    0.4718   -0.1701    0.0000    0.0000   -0.0146   -0.0000   -0.0000    0.0000
          28    0.0105    0.0013   -0.0717   -0.1713    0.1630    0.0320   -0.0067    0.0011
          29    0.0123    0.0034   -0.0652   -0.0590    0.2777    0.0015    0.0054   -0.0025
          30    0.0065    0.0012   -0.0017    0.0133    0.1189   -0.0104    0.0029   -0.0042
          31   -0.0105   -0.0013   -0.0717   -0.1713   -0.1630    0.0320   -0.0067    0.0011
          32   -0.0123   -0.0034   -0.0652   -0.0590   -0.2777    0.0015    0.0054   -0.0025
          33    0.0065    0.0012    0.0017   -0.0133    0.1189    0.0104   -0.0029    0.0042
          34   -0.0000   -0.0000   -0.0143    0.1125    0.0000   -0.0127    0.0222    0.0117
          35   -0.0000    0.0000   -0.0030    0.2920    0.0000   -0.0301    0.0473    0.0247
          36    0.0041    0.0026    0.0000   -0.0000    0.1665    0.0000    0.0000   -0.0000


   Root No.      17        18        19        20        21        22        23        24

                 9 A"      9 A'     10 A'     11 A'     12 A'     13 A'     14 A'     15 A'  

                1234.2    1236.1    1322.2    1337.4    1378.3    1436.5    1516.0    1518.3
  
           1   -0.0000   -0.0053    0.0665    0.0045    0.0836    0.0315    0.1239    0.0048
           2    0.0000    0.0039    0.0511    0.0041   -0.0835   -0.0223    0.0753    0.1219
           3   -0.0059    0.0000   -0.0000   -0.0000    0.0000    0.0000    0.0000   -0.0000
           4    0.0000    0.0045   -0.0033   -0.0050   -0.0640   -0.0678   -0.0689   -0.0314
           5   -0.0000   -0.0006   -0.0591    0.0034    0.0065   -0.1168    0.0713   -0.0780
           6   -0.0001   -0.0000    0.0000    0.0000   -0.0000    0.0000   -0.0000    0.0000
           7   -0.0000   -0.0020   -0.0909   -0.0003    0.0025    0.1181   -0.0036    0.0243
           8   -0.0000   -0.0028    0.1263   -0.0057    0.0335    0.0425   -0.1007    0.0619
           9    0.0000   -0.0000   -0.0000    0.0000    0.0000    0.0000    0.0000   -0.0000
          10    0.0000    0.0019    0.1338   -0.0054   -0.0424   -0.0146    0.0009   -0.0891
          11    0.0000    0.0008   -0.0485   -0.0030   -0.0535    0.0849    0.0216   -0.0572
          12    0.0000    0.0000    0.0000    0.0000    0.0000   -0.0000   -0.0000   -0.0000
          13    0.0000    0.0022   -0.0829    0.0049    0.0290   -0.0866   -0.0172    0.1060
          14   -0.0000   -0.0047    0.0031   -0.0006    0.1013   -0.0301   -0.0509   -0.0012
          15   -0.0008    0.0000   -0.0000   -0.0000   -0.0000    0.0000    0.0000    0.0000
          16    0.0000    0.0268   -0.0360   -0.0391   -0.0152   -0.0018   -0.0393   -0.0114
          17   -0.0000   -0.0242   -0.0449   -0.0533    0.0247    0.0053   -0.0375   -0.0419
          18   -0.0315    0.0000    0.0000   -0.0000   -0.0000   -0.0000    0.0000    0.0000
          19    0.0000    0.0311   -0.0797   -0.0005   -0.1325    0.1373   -0.0447    0.1113
          20    0.0000    0.0175   -0.0993    0.0061   -0.0557    0.0082    0.0782    0.0263
          21   -0.0002   -0.0000    0.0000    0.0000    0.0000   -0.0000   -0.0000    0.0000
          22   -0.0000   -0.0032   -0.0117   -0.0035    0.0205    0.0770   -0.0813    0.0591
          23   -0.0000    0.0019   -0.0276   -0.0003   -0.0431    0.1275    0.0689   -0.0645
          24    0.0003   -0.0000    0.0000    0.0000    0.0000   -0.0000   -0.0000    0.0000
          25    0.0000    0.0012   -0.0990    0.0047    0.0295   -0.0346    0.0313    0.0826
          26   -0.0000   -0.0073   -0.1260    0.0009    0.0629    0.1494    0.0981   -0.0432
          27    0.0068    0.0000    0.0000   -0.0000   -0.0000   -0.0000   -0.0000    0.0000
          28   -0.2756   -0.1647   -0.0140    0.2125    0.0614    0.0217   -0.0330   -0.0632
          29   -0.0176    0.2398   -0.0188    0.1695    0.0543    0.0207   -0.0377   -0.0559
          30    0.0315    0.2130    0.0019    0.0955    0.0173    0.0092   -0.0186   -0.0201
          31    0.2756   -0.1647   -0.0140    0.2125    0.0614    0.0217   -0.0330   -0.0632
          32    0.0176    0.2398   -0.0188    0.1695    0.0543    0.0207   -0.0377   -0.0559
          33    0.0315   -0.2130   -0.0019   -0.0955   -0.0173   -0.0092    0.0186    0.0201
          34   -0.0000   -0.0280   -0.0256    0.0576   -0.0429   -0.0034   -0.0375    0.0036
          35   -0.0000   -0.1719   -0.0473    0.3089   -0.1466   -0.0143   -0.1130    0.0007
          36    0.3983   -0.0000   -0.0000   -0.0000    0.0000   -0.0000    0.0000    0.0000


   Root No.      25        26        27        28        29        30

                10 A"     16 A'     17 A'     18 A'     19 A'     20 A'  

                2659.4    2667.5    2759.7    2769.6    2780.2    2793.1
  
           1    0.0000   -0.0014   -0.0029   -0.0027    0.0029    0.0003
           2    0.0000    0.0020   -0.0044    0.0009   -0.0004   -0.0019
           3   -0.0024    0.0000   -0.0000   -0.0000   -0.0000    0.0000
           4    0.0000    0.0006   -0.0005   -0.0028    0.0096    0.0221
           5    0.0000   -0.0005    0.0007    0.0059   -0.0189   -0.0332
           6   -0.0000    0.0000   -0.0000   -0.0000    0.0000   -0.0000
           7   -0.0000   -0.0001   -0.0017   -0.0087   -0.0371    0.0194
           8    0.0000    0.0001   -0.0001   -0.0051   -0.0171    0.0067
           9   -0.0000    0.0000    0.0000   -0.0000    0.0000   -0.0000
          10   -0.0000    0.0000    0.0007   -0.0029   -0.0031   -0.0001
          11    0.0000   -0.0001    0.0001    0.0010   -0.0003    0.0014
          12   -0.0000   -0.0000    0.0000    0.0000   -0.0000    0.0000
          13   -0.0000    0.0009    0.0058   -0.0425    0.0070   -0.0114
          14   -0.0000   -0.0009   -0.0016    0.0115   -0.0002    0.0036
          15   -0.0001   -0.0000    0.0000    0.0000   -0.0000    0.0000
          16   -0.0000   -0.0379   -0.0138   -0.0033    0.0013   -0.0007
          17    0.0000    0.0281   -0.0156   -0.0018    0.0005   -0.0014
          18   -0.0545    0.0000   -0.0000   -0.0000   -0.0000    0.0000
          19   -0.0000   -0.0043    0.0050    0.0522   -0.1573   -0.2714
          20    0.0000    0.0070   -0.0079   -0.0759    0.2308    0.4000
          21    0.0006    0.0000   -0.0000   -0.0000   -0.0000   -0.0000
          22   -0.0000    0.0001    0.0187    0.1277    0.4805   -0.2198
          23    0.0000   -0.0001    0.0078    0.0510    0.1944   -0.0892
          24   -0.0001    0.0000   -0.0000   -0.0000    0.0000   -0.0000
          25   -0.0000   -0.0115   -0.0726    0.5370   -0.0731    0.1254
          26   -0.0000    0.0031    0.0212   -0.1569    0.0223   -0.0365
          27    0.0002   -0.0000    0.0000    0.0000   -0.0000    0.0000
          28    0.0759    0.0215   -0.0478   -0.0070    0.0023   -0.0042
          29   -0.2762   -0.1337    0.1557    0.0224   -0.0076    0.0142
          30    0.3563    0.2059   -0.2228   -0.0320    0.0110   -0.0196
          31   -0.0759    0.0215   -0.0478   -0.0070    0.0023   -0.0042
          32    0.2762   -0.1337    0.1557    0.0224   -0.0076    0.0142
          33    0.3563   -0.2059    0.2228    0.0320   -0.0110    0.0196
          34    0.0000    0.4257    0.2982    0.0595   -0.0217    0.0217
          35   -0.0000   -0.0892   -0.0743   -0.0138    0.0049   -0.0052
          36   -0.0278    0.0000    0.0000    0.0000   -0.0000    0.0000


           MASS-WEIGHTED COORDINATE ANALYSIS (NORMAL COORDINATES)


   Root No.       1         2         3         4         5         6         7         8

                 1 A"      2 A"      1 A'      3 A"      4 A"      2 A'      3 A'      5 A"  

                  24.2     177.2     348.0     476.3     561.1     676.8     823.7     828.5
  
           1   -0.0000   -0.0000   -0.3405   -0.0000   -0.0000    0.1859    0.1825   -0.0000
           2    0.0000    0.0000    0.2385    0.0000    0.0000    0.2667   -0.1312    0.0000
           3    0.0705    0.6326   -0.0000    0.5632    0.0501   -0.0000    0.0000    0.1032
           4   -0.0000   -0.0000   -0.3239    0.0000   -0.0000    0.1116   -0.0210    0.0000
           5    0.0000    0.0000   -0.0572   -0.0000    0.0000   -0.2965   -0.3525   -0.0000
           6    0.1410    0.2003    0.0000   -0.4573    0.1674    0.0000    0.0000   -0.3651
           7   -0.0000    0.0000    0.0097   -0.0000    0.0000   -0.1596   -0.5164    0.0000
           8    0.0000   -0.0000   -0.1843    0.0000   -0.0000   -0.2922   -0.1235   -0.0000
           9    0.0531   -0.2703    0.0000    0.1985   -0.4134    0.0000   -0.0000   -0.1123
          10    0.0000    0.0000    0.1960   -0.0000   -0.0000   -0.2129   -0.0288   -0.0000
          11   -0.0000   -0.0000    0.0607    0.0000    0.0000   -0.2383    0.6008    0.0000
          12   -0.1085   -0.2600   -0.0000    0.1081    0.6089    0.0000   -0.0000    0.1062
          13    0.0000   -0.0000   -0.0473    0.0000    0.0000   -0.2928    0.3103    0.0000
          14   -0.0000    0.0000    0.3220   -0.0000   -0.0000    0.0099    0.1048   -0.0000
          15   -0.1112    0.2039   -0.0000   -0.3968   -0.3229    0.0000    0.0000   -0.1888
          16    0.0000    0.0000    0.3861   -0.0000   -0.0000    0.3511    0.0469   -0.0000
          17   -0.0000   -0.0000   -0.2817    0.0000    0.0000    0.5001   -0.0407    0.0000
          18   -0.0383   -0.3858    0.0000    0.0666    0.0055   -0.0000   -0.0000    0.0134
          19   -0.0000   -0.0000   -0.1587    0.0000   -0.0000   -0.0481    0.0958   -0.0000
          20    0.0000    0.0000   -0.0615   -0.0000    0.0000   -0.1380   -0.0339    0.0000
          21    0.0745    0.1018    0.0000   -0.3643    0.2175    0.0000    0.0000    0.7238
          22   -0.0000    0.0000    0.0315   -0.0000    0.0000   -0.0714   -0.0840   -0.0000
          23    0.0000   -0.0000   -0.1229    0.0000   -0.0000   -0.0257   -0.1834    0.0000
          24    0.0275   -0.1688    0.0000    0.1983   -0.4035   -0.0000    0.0000    0.3794
          25    0.0000   -0.0000    0.0098    0.0000    0.0000   -0.1038    0.0476   -0.0000
          26   -0.0000    0.0000    0.1662   -0.0000   -0.0000   -0.0648   -0.1112    0.0000
          27   -0.0624    0.1169   -0.0000   -0.2829   -0.3366    0.0000    0.0000    0.3583
          28    0.3816   -0.1372    0.2557   -0.0440   -0.0021    0.0982   -0.0185    0.0013
          29   -0.2942   -0.1135   -0.0453   -0.0474    0.0005    0.1370   -0.0218    0.0009
          30   -0.2975   -0.1622   -0.0019   -0.0031    0.0028    0.0015   -0.0003    0.0046
          31   -0.3816    0.1372    0.2557    0.0440    0.0021    0.0982   -0.0185   -0.0013
          32    0.2942    0.1135   -0.0453    0.0474   -0.0005    0.1370   -0.0218   -0.0009
          33   -0.2975   -0.1622    0.0019   -0.0031    0.0028   -0.0015    0.0003    0.0046
          34   -0.0000    0.0000    0.0593    0.0000   -0.0000    0.0918    0.0268   -0.0000
          35    0.0000   -0.0000   -0.3120   -0.0000    0.0000    0.1200    0.0433   -0.0000
          36    0.5432   -0.2449   -0.0000   -0.0142    0.0049   -0.0000   -0.0000    0.0028


   Root No.       9        10        11        12        13        14        15        16

                 6 A"      7 A"      4 A'      5 A'      8 A"      6 A'      7 A'      8 A'  

                 861.2     890.7    1011.7    1048.6    1057.5    1120.7    1138.1    1199.2
  
           1   -0.0000    0.0000    0.0670    0.0821   -0.0000    0.0063   -0.0729   -0.0656
           2    0.0000   -0.0000    0.0752   -0.0851    0.0000   -0.0468   -0.0634   -0.0450
           3    0.0241   -0.0380   -0.0000   -0.0000   -0.2108    0.0000    0.0000   -0.0000
           4   -0.0000   -0.0000    0.4965   -0.2596    0.0000    0.0094   -0.0645   -0.3197
           5    0.0000    0.0000   -0.1401    0.1050   -0.0000    0.0085   -0.1201   -0.0432
           6    0.2973    0.2400   -0.0000   -0.0000   -0.0050    0.0000   -0.0000   -0.0000
           7    0.0000    0.0000    0.0634    0.0206   -0.0000   -0.1793   -0.2570    0.0317
           8   -0.0000   -0.0000   -0.1993    0.0054   -0.0000   -0.0495    0.0994   -0.1237
           9   -0.1217   -0.5180   -0.0000   -0.0000   -0.0074   -0.0000   -0.0000    0.0000
          10   -0.0000   -0.0000   -0.1494    0.0214    0.0000    0.0808    0.0965    0.1749
          11    0.0000    0.0000    0.0133   -0.0696    0.0000   -0.1998   -0.1251   -0.1045
          12    0.1461    0.0808    0.0000   -0.0000    0.0176   -0.0000    0.0000    0.0000
          13    0.0000   -0.0000   -0.1987   -0.1244    0.0000   -0.1385    0.2004    0.1220
          14   -0.0000    0.0000    0.5410    0.1589   -0.0000    0.1103   -0.1811    0.1909
          15   -0.4659    0.1507   -0.0000    0.0000   -0.0361   -0.0000    0.0000    0.0000
          16   -0.0000    0.0000   -0.1699    0.3830   -0.0000   -0.0420    0.1153    0.0632
          17   -0.0000   -0.0000   -0.3404   -0.1921    0.0000    0.0596    0.0695    0.0573
          18   -0.0061   -0.0069    0.0000    0.0000    0.4465    0.0000    0.0000   -0.0000
          19    0.0000    0.0000    0.0611   -0.0495    0.0000    0.6845   -0.0679    0.2770
          20   -0.0000   -0.0000   -0.0974    0.0372   -0.0000    0.4672   -0.0602    0.2338
          21   -0.3891   -0.1874   -0.0000   -0.0000   -0.0068    0.0000   -0.0000   -0.0000
          22   -0.0000   -0.0000   -0.1240    0.0653   -0.0000    0.0557   -0.2669   -0.2254
          23    0.0000    0.0000    0.2960   -0.1556    0.0000   -0.2675    0.5155    0.5374
          24    0.0428    0.7375   -0.0000   -0.0000    0.0123    0.0000   -0.0000   -0.0000
          25   -0.0000    0.0000   -0.0618   -0.0157    0.0000    0.0517    0.2513   -0.1302
          26    0.0000   -0.0000    0.1440    0.0855   -0.0000    0.3235    0.6024   -0.5315
          27    0.7093   -0.2536    0.0000    0.0000    0.0248   -0.0000   -0.0000    0.0000
          28    0.0158    0.0019   -0.1039   -0.3378   -0.2757    0.0580   -0.0117    0.0021
          29    0.0184    0.0051   -0.0945   -0.1164   -0.4698    0.0028    0.0094   -0.0046
          30    0.0098    0.0017   -0.0025    0.0263   -0.2012   -0.0189    0.0051   -0.0077
          31   -0.0158   -0.0019   -0.1039   -0.3378    0.2757    0.0580   -0.0117    0.0021
          32   -0.0184   -0.0051   -0.0945   -0.1164    0.4698    0.0028    0.0094   -0.0046
          33    0.0098    0.0017    0.0025   -0.0263   -0.2012    0.0189   -0.0051    0.0077
          34   -0.0000   -0.0000   -0.0207    0.2219   -0.0000   -0.0230    0.0390    0.0217
          35   -0.0000    0.0000   -0.0044    0.5759   -0.0000   -0.0546    0.0829    0.0460
          36    0.0062    0.0038    0.0000   -0.0000   -0.2816    0.0000    0.0000   -0.0000


   Root No.      17        18        19        20        21        22        23        24

                 9 A"      9 A'     10 A'     11 A'     12 A'     13 A'     14 A'     15 A'  

                1234.2    1236.1    1322.2    1337.4    1378.3    1436.5    1516.0    1518.3
  
           1   -0.0000   -0.0358    0.2648    0.0297    0.4287    0.1406    0.5701    0.0214
           2    0.0000    0.0260    0.2031    0.0271   -0.4279   -0.0997    0.3466    0.5431
           3   -0.0385    0.0000   -0.0000   -0.0000    0.0000    0.0000    0.0000   -0.0000
           4    0.0000    0.0281   -0.0122   -0.0308   -0.3040   -0.2804   -0.2935   -0.1295
           5   -0.0000   -0.0039   -0.2177    0.0208    0.0309   -0.4831    0.3040   -0.3216
           6   -0.0007   -0.0000    0.0000    0.0000   -0.0000    0.0000   -0.0000    0.0000
           7   -0.0000   -0.0122   -0.3348   -0.0018    0.0116    0.4887   -0.0152    0.1000
           8   -0.0000   -0.0173    0.4653   -0.0346    0.1588    0.1758   -0.4290    0.2552
           9    0.0000   -0.0000   -0.0000    0.0000    0.0000    0.0000    0.0000   -0.0000
[...]
 REDUCED MASS        2.4712         N  1 -- C  5          +8.3% ( 60.2%)     95.5%
 EFFECTIVE MASS     11.3078
 FORCE CONSTANT      1.4902

 VIBRATION         12    5A'          ATOM PAIR      ENERGY CONTRIBUTION    RADIAL
 FREQUENCY          1048.56         C  6 -- H 12         +28.1% ( 79.0%)     19.5%
 TRANSITION DIPOLE   0.3278         C  6 -- H 10         +15.4% ( 58.6%)      4.0%
 TRAVEL (Ang.)       0.3070         C  6 -- H 11         +15.4% ( 58.6%)      4.0%
 REDUCED MASS        0.6822         N  1 -- C  6          +7.1% ( 39.6%)      7.5%
 EFFECTIVE MASS      4.7892
 FORCE CONSTANT      0.4419

 VIBRATION         13    8A"          ATOM PAIR      ENERGY CONTRIBUTION    RADIAL
 FREQUENCY          1057.47         C  6 -- H 11         +35.6% ( 74.7%)     13.3%
 TRANSITION DIPOLE   0.3452         C  6 -- H 10         +35.6% ( 74.7%)     13.3%
 TRAVEL (Ang.)       0.2934         C  6 -- H 12         +17.0% ( 51.7%)      0.0%
 REDUCED MASS        0.7407         N  1 -- C  6         +10.6% ( 40.7%)      0.0%
 EFFECTIVE MASS      3.2692
 FORCE CONSTANT      0.4880

 VIBRATION         14    6A'          ATOM PAIR      ENERGY CONTRIBUTION    RADIAL
 FREQUENCY          1120.71         C  2 -- H  7         +49.4% ( 82.7%)      0.0%
 TRANSITION DIPOLE   0.3163         C  5 -- H  9          +9.6% ( 36.4%)     18.0%
 TRAVEL (Ang.)       0.3309         C  3 -- H  8          +7.5% ( 32.2%)     17.1%
 REDUCED MASS        0.5496         C  3 -- N  4          +7.5% ( 32.2%)     98.9%
 EFFECTIVE MASS      2.6235
 FORCE CONSTANT      0.4067

 VIBRATION         15    7A'          ATOM PAIR      ENERGY CONTRIBUTION    RADIAL
 FREQUENCY          1138.06         C  5 -- H  9         +28.6% ( 71.1%)      5.0%
 TRANSITION DIPOLE   0.2937         C  3 -- H  8         +20.2% ( 59.7%)     13.3%
 TRAVEL (Ang.)       0.3634         C  3 -- C  5          +9.8% ( 41.5%)     72.5%
 REDUCED MASS        0.4487         C  3 -- N  4          +7.9% ( 37.4%)     99.6%
 EFFECTIVE MASS      3.7226
 FORCE CONSTANT      0.3424

 VIBRATION         16    8A'          ATOM PAIR      ENERGY CONTRIBUTION    RADIAL
 FREQUENCY          1199.23         C  5 -- H  9         +24.0% ( 59.0%)      0.2%
 TRANSITION DIPOLE   0.1449         C  3 -- H  8         +23.0% ( 57.8%)      0.1%
 TRAVEL (Ang.)       0.3684         C  2 -- H  7         +15.4% ( 47.3%)      2.3%
 REDUCED MASS        0.4143         C  2 -- C  5          +8.9% ( 35.9%)     18.8%
 EFFECTIVE MASS      2.9586
 FORCE CONSTANT      0.3510

 VIBRATION         17    9A"          ATOM PAIR      ENERGY CONTRIBUTION    RADIAL
 FREQUENCY          1234.21         C  6 -- H 12         +47.2% ( 57.9%)      0.0%
 TRANSITION DIPOLE   0.5083         C  6 -- H 10         +25.0% ( 42.2%)      6.0%
 TRAVEL (Ang.)       0.3849         C  6 -- H 11         +25.0% ( 42.2%)      6.0%
 REDUCED MASS        0.3688         N  1 -- C  6          +2.7% ( 14.0%)      0.0%
 EFFECTIVE MASS      1.3137
 FORCE CONSTANT      0.3310

 VIBRATION         18    9A'          ATOM PAIR      ENERGY CONTRIBUTION    RADIAL
 FREQUENCY          1236.06         C  6 -- H 11         +40.9% ( 55.7%)      1.3%
 TRANSITION DIPOLE   0.4487         C  6 -- H 10         +40.9% ( 55.7%)      1.3%
 TRAVEL (Ang.)       0.3702         C  6 -- H 12         +11.2% ( 29.1%)     40.2%
 REDUCED MASS        0.3981         N  1 -- C  6          +4.5% ( 18.5%)      1.0%
 EFFECTIVE MASS      1.5143
 FORCE CONSTANT      0.3583

 VIBRATION         19   10A'          ATOM PAIR      ENERGY CONTRIBUTION    RADIAL
 FREQUENCY          1322.17         C  3 -- N  4         +20.7% ( 78.0%)    100.0%
 TRANSITION DIPOLE   0.7420         N  4 -- C  5         +12.3% ( 60.0%)     39.3%
 TRAVEL (Ang.)       0.1289         C  2 -- C  3         +10.9% ( 56.7%)     56.8%
 REDUCED MASS        3.0690         N  1 -- C  3         +10.1% ( 54.5%)     24.0%
 EFFECTIVE MASS     12.3028
 FORCE CONSTANT      3.1610

 VIBRATION         20   11A'          ATOM PAIR      ENERGY CONTRIBUTION    RADIAL
 FREQUENCY          1337.39         C  6 -- H 12         +32.2% ( 60.4%)      1.5%
 TRANSITION DIPOLE   0.4993         C  6 -- H 11         +28.1% ( 56.4%)      1.5%
 TRAVEL (Ang.)       0.3020         C  6 -- H 10         +28.1% ( 56.4%)      1.5%
 REDUCED MASS        0.5527         N  1 -- C  6          +9.6% ( 33.0%)     99.9%
 EFFECTIVE MASS      2.5615
 FORCE CONSTANT      0.5824

 VIBRATION         21   12A'          ATOM PAIR      ENERGY CONTRIBUTION    RADIAL
 FREQUENCY          1378.32         N  1 -- C  5         +19.0% ( 69.9%)    100.0%
 TRANSITION DIPOLE   0.5220         N  1 -- C  2         +15.1% ( 62.2%)     71.8%
 TRAVEL (Ang.)       0.1284         N  4 -- C  5         +12.7% ( 57.2%)     78.8%
 REDUCED MASS        2.9662         N  1 -- C  6         +10.1% ( 51.0%)      4.3%
 EFFECTIVE MASS     11.2940
 FORCE CONSTANT      3.3201

 VIBRATION         22   13A'          ATOM PAIR      ENERGY CONTRIBUTION    RADIAL
 FREQUENCY          1436.47         C  2 -- C  3         +19.5% ( 75.8%)     69.4%
 TRANSITION DIPOLE   0.6516         C  3 -- C  5         +12.3% ( 60.1%)     89.0%
 TRAVEL (Ang.)       0.1340         C  3 -- N  4         +11.3% ( 57.5%)     92.6%
 REDUCED MASS        2.6147         C  2 -- C  5         +10.6% ( 55.8%)     56.3%
 EFFECTIVE MASS     11.7081
 FORCE CONSTANT      3.1788

 VIBRATION         23   14A'          ATOM PAIR      ENERGY CONTRIBUTION    RADIAL
 FREQUENCY          1515.95         N  1 -- C  2         +18.5% ( 72.4%)     99.8%
 TRANSITION DIPOLE   1.3412         N  1 -- C  3         +16.3% ( 68.0%)     92.5%
 TRAVEL (Ang.)       0.1106         N  1 -- C  6         +14.1% ( 63.3%)     88.2%
 REDUCED MASS        3.6358         N  1 -- C  5         +12.4% ( 59.3%)     16.2%
 EFFECTIVE MASS     12.1164         C  2 -- C  3         +10.8% ( 55.4%)     64.5%
 FORCE CONSTANT      4.9230

 VIBRATION         24   15A'          ATOM PAIR      ENERGY CONTRIBUTION    RADIAL
 FREQUENCY          1518.26         N  1 -- C  5         +14.8% ( 61.8%)     88.6%
 TRANSITION DIPOLE   0.1893         N  4 -- C  5         +14.5% ( 61.0%)     87.4%
 TRAVEL (Ang.)       0.1305         N  1 -- C  2         +11.4% ( 54.1%)      3.0%
 REDUCED MASS        2.6089         N  1 -- C  6          +9.7% ( 49.9%)     75.0%
 EFFECTIVE MASS     12.3732
 FORCE CONSTANT      3.5432

 VIBRATION         25   10A"          ATOM PAIR      ENERGY CONTRIBUTION    RADIAL
 FREQUENCY          2659.43         C  6 -- H 10         +49.2% ( 72.2%)     97.9%
 TRANSITION DIPOLE   0.7246         C  6 -- H 11         +49.2% ( 72.2%)     97.9%
 TRAVEL (Ang.)       0.2253         N  1 -- C  6          +0.9% (  9.6%)      0.0%
 REDUCED MASS        0.4997         C  6 -- H 12          +0.8% (  9.3%)      0.0%
 EFFECTIVE MASS      1.4498
 FORCE CONSTANT      2.0823

 VIBRATION         26   16A'          ATOM PAIR      ENERGY CONTRIBUTION    RADIAL
 FREQUENCY          2667.50         C  6 -- H 12         +60.2% ( 80.0%)     99.5%
 TRANSITION DIPOLE   0.6467         C  6 -- H 11         +19.4% ( 45.4%)     87.5%
 TRAVEL (Ang.)       0.2354         C  6 -- H 10         +19.4% ( 45.4%)     87.5%
 REDUCED MASS        0.4562         N  1 -- C  6          +0.9% ( 10.0%)      0.0%
 EFFECTIVE MASS      1.4592
 FORCE CONSTANT      1.9125

 VIBRATION         27   17A'          ATOM PAIR      ENERGY CONTRIBUTION    RADIAL
 FREQUENCY          2759.73         C  6 -- H 12         +37.5% ( 59.0%)     96.3%
 TRANSITION DIPOLE   0.4998         C  6 -- H 11         +29.6% ( 52.5%)     94.9%
 TRAVEL (Ang.)       0.2791         C  6 -- H 10         +29.6% ( 52.5%)     94.9%
 REDUCED MASS        0.3136         C  5 -- H  9          +2.6% ( 15.5%)    100.0%
 EFFECTIVE MASS      1.1401
 FORCE CONSTANT      1.4072

 VIBRATION         28   18A'          ATOM PAIR      ENERGY CONTRIBUTION    RADIAL
 FREQUENCY          2769.58         C  5 -- H  9         +85.6% ( 95.0%)    100.0%
 TRANSITION DIPOLE   1.2805         C  3 -- H  8          +5.2% ( 23.3%)    100.0%
 TRAVEL (Ang.)       0.1789         C  2 -- H  7          +2.3% ( 15.6%)    100.0%
 REDUCED MASS        0.7611         C  3 -- C  5          +1.3% ( 11.6%)     80.4%
 EFFECTIVE MASS      1.4200
 FORCE CONSTANT      3.4396

 VIBRATION         29   19A'          ATOM PAIR      ENERGY CONTRIBUTION    RADIAL
 FREQUENCY          2780.21         C  3 -- H  8         +72.3% ( 87.2%)    100.0%
 TRANSITION DIPOLE   0.8764         C  2 -- H  7         +21.0% ( 47.0%)    100.0%
 TRAVEL (Ang.)       0.2039         C  5 -- H  9          +1.6% ( 12.9%)     99.7%
 REDUCED MASS        0.5834         C  3 -- C  5          +1.1% ( 10.9%)     87.3%
 EFFECTIVE MASS      1.4193
 FORCE CONSTANT      2.6569

 VIBRATION         30   20A'          ATOM PAIR      ENERGY CONTRIBUTION    RADIAL
 FREQUENCY          2793.15         C  2 -- H  7         +71.7% ( 86.8%)    100.0%
 TRANSITION DIPOLE   0.7713         C  3 -- H  8         +17.3% ( 42.6%)     99.9%
 TRAVEL (Ang.)       0.2068         C  5 -- H  9          +5.2% ( 23.5%)    100.0%
 REDUCED MASS        0.5645         C  2 -- C  3          +1.6% ( 13.1%)     88.8%
 EFFECTIVE MASS      1.5090
 FORCE CONSTANT      2.5948

      SYMMETRY NUMBER FOR POINT-GROUP Cs  =  1


          SYSTEM IS A GROUND STATE


 All coordinates are Cartesian
 mi


          MOLECULE IS NOT LINEAR

          THERE ARE 30 GENUINE VIBRATIONS IN THIS SYSTEM
          THIS THERMODYNAMICS CALCULATION IS LIMITED TO
          MOLECULES WHICH HAVE NO INTERNAL ROTATIONS




                    CALCULATED THERMODYNAMIC PROPERTIES
                                          *
   TEMP. (K)   PARTITION FUNCTION   H.O.F.    ENTHALPY  HEAT CAPACITY ENTROPY
                                   KCAL/MOL   CAL/MOLE    CAL/K/MOL  CAL/K/MOL


 298.00  VIB.     0.2677D+02                  1810.2729    13.7160    12.6069
         ROT.     0.9795D+05                   888.2803     2.9808    25.8181
         INT.     0.2622D+07                  2698.5532    16.6968    38.4251
         TRA.     0.7192D+27                  1480.4672     4.9680    39.1280
         TOT.                       32.838    4179.0204    21.6649    77.5531

 200.00  VIB.     0.1014D+02                   769.8508     7.7492     8.4523
         ROT.     0.5385D+05                   596.1613     2.9808    24.6295
         INT.     0.5460D+06                  1366.0121    10.7300    33.0818
         TRA.     0.3955D+27                   993.6021     4.9680    37.1469
         TOT.                       31.019    2359.6142    15.6980    70.2287

 210.00  VIB.     0.1117D+02                   849.9943     8.2832     8.8433
         ROT.     0.5794D+05                   625.9693     2.9808    24.7749
         INT.     0.6473D+06                  1475.9637    11.2640    33.6182
         TRA.     0.4255D+27                  1043.2822     4.9680    37.3893
         TOT.                       31.179    2519.2459    16.2320    71.0075

 220.00  VIB.     0.1231D+02                   935.5873     8.8389     9.2413
         ROT.     0.6213D+05                   655.7774     2.9808    24.9136
         INT.     0.7648D+06                  1591.3647    11.8197    34.1549
         TRA.     0.4562D+27                  1092.9623     4.9680    37.6204
         TOT.                       31.344    2684.3270    16.7877    71.7753

 230.00  VIB.     0.1357D+02                  1026.8390     9.4147     9.6469
         ROT.     0.6641D+05                   685.5855     2.9808    25.0461
         INT.     0.9012D+06                  1712.4245    12.3955    34.6930
         TRA.     0.4877D+27                  1142.6424     4.9680    37.8412
         TOT.                       31.515    2855.0670    17.3635    72.5342

 240.00  VIB.     0.1497D+02                  1123.9431    10.0090    10.0601
         ROT.     0.7079D+05                   715.3935     2.9808    25.1729
         INT.     0.1059D+07                  1839.3367    12.9898    35.2330
         TRA.     0.5198D+27                  1192.3226     4.9680    38.0527
         TOT.                       31.691    3031.6592    17.9578    73.2857

 250.00  VIB.     0.1652D+02                  1227.0747    10.6199    10.4810
         ROT.     0.7526D+05                   745.2016     2.9808    25.2946
         INT.     0.1243D+07                  1972.2763    13.6007    35.7756
         TRA.     0.5527D+27                  1242.0027     4.9680    38.2555
         TOT.                       31.874    3214.2790    18.5687    74.0311

 260.00  VIB.     0.1824D+02                  1336.3890    11.2452    10.9096
         ROT.     0.7982D+05                   775.0097     2.9808    25.4115
         INT.     0.1456D+07                  2111.3987    14.2260    36.3212
         TRA.     0.5862D+27                  1291.6828     4.9680    38.4503
         TOT.                       32.063    3403.0814    19.1940    74.7715

 270.00  VIB.     0.2015D+02                  1452.0203    11.8829    11.3460
         ROT.     0.8447D+05                   804.8177     2.9808    25.5240
         INT.     0.1702D+07                  2256.8380    14.8637    36.8700
         TRA.     0.6203D+27                  1341.3629     4.9680    38.6378
         TOT.                       32.258    3598.2009    19.8317    75.5078

 280.00  VIB.     0.2228D+02                  1574.0814    12.5308    11.7898
         ROT.     0.8921D+05                   834.6258     2.9808    25.6324
         INT.     0.1988D+07                  2408.7072    15.5116    37.4222
         TRA.     0.6551D+27                  1391.0430     4.9680    38.8185
         TOT.                       32.459    3799.7502    20.4796    76.2407

 290.00  VIB.     0.2466D+02                  1702.6637    13.1868    12.2409
         ROT.     0.9403D+05                   864.4339     2.9808    25.7370
         INT.     0.2319D+07                  2567.0976    16.1676    37.9780
         TRA.     0.6905D+27                  1440.7231     4.9680    38.9928
         TOT.                       32.667    4007.8207    21.1356    76.9708

 300.00  VIB.     0.2732D+02                  1837.8377    13.8488    12.6991
         ROT.     0.9894D+05                   894.2419     2.9808    25.8381
         INT.     0.2703D+07                  2732.0797    16.8296    38.5372
         TRA.     0.7265D+27                  1490.4032     4.9680    39.1613
         TOT.                       32.882    4222.4829    21.7976    77.6985

 310.00  VIB.     0.3029D+02                  1979.6538    14.5149    13.1641
         ROT.     0.1039D+06                   924.0500     2.9808    25.9358
         INT.     0.3148D+07                  2903.7038    17.4957    39.0999
         TRA.     0.7631D+27                  1540.0833     4.9680    39.3242
         TOT.                       33.103    4443.7871    22.4637    78.4241

 320.00  VIB.     0.3362D+02                  2128.1431    15.1832    13.6355
         ROT.     0.1090D+06                   953.8580     2.9808    26.0305
         INT.     0.3664D+07                  3082.0012    18.1640    39.6659
         TRA.     0.8003D+27                  1589.7634     4.9680    39.4819
         TOT.                       33.331    4671.7646    23.1320    79.1478

 330.00  VIB.     0.3734D+02                  2283.3192    15.8520    14.1129
         ROT.     0.1141D+06                   983.6661     2.9808    26.1222
         INT.     0.4262D+07                  3266.9853    18.8328    40.2351
         TRA.     0.8382D+27                  1639.4435     4.9680    39.6348
         TOT.                       33.566    4906.4288    23.8008    79.8699

 340.00  VIB.     0.4151D+02                  2445.1789    16.5197    14.5961
         ROT.     0.1194D+06                  1013.4742     2.9808    26.2112
         INT.     0.4955D+07                  3458.6531    19.5005    40.8072
         TRA.     0.8765D+27                  1689.1236     4.9680    39.7831
         TOT.                       33.807    5147.7767    24.4685    80.5903

 350.00  VIB.     0.4620D+02                  2613.7045    17.1849    15.0845
         ROT.     0.1247D+06                  1043.2822     2.9808    26.2976
         INT.     0.5760D+07                  3656.9867    20.1657    41.3821
         TRA.     0.9155D+27                  1738.8037     4.9680    39.9271
         TOT.                       34.055    5395.7904    25.1337    81.3092

 360.00  VIB.     0.5146D+02                  2788.8642    17.8463    15.5779
         ROT.     0.1301D+06                  1073.0903     2.9808    26.3816
         INT.     0.6692D+07                  3861.9545    20.8271    41.9595
         TRA.     0.9550D+27                  1788.4838     4.9680    40.0670
         TOT.                       34.310    5650.4384    25.7951    82.0265

 370.00  VIB.     0.5737D+02                  2970.6147    18.5029    16.0759
         ROT.     0.1355D+06                  1102.8984     2.9808    26.4632
         INT.     0.7774D+07                  4073.5131    21.4837    42.5391
         TRA.     0.9951D+27                  1838.1639     4.9680    40.2032
         TOT.                       34.571    5911.6770    26.4517    82.7422

 380.00  VIB.     0.6402D+02                  3158.9018    19.1535    16.5780
         ROT.     0.1410D+06                  1132.7064     2.9808    26.5427
         INT.     0.9029D+07                  4291.6082    22.1343    43.1207
         TRA.     0.1036D+28                  1887.8440     4.9680    40.3357
         TOT.                       34.839    6179.4523    27.1023    83.4563

 390.00  VIB.     0.7150D+02                  3353.6620    19.7974    17.0838
         ROT.     0.1466D+06                  1162.5145     2.9808    26.6201
         INT.     0.1048D+08                  4516.1765    22.7782    43.7040
         TRA.     0.1077D+28                  1937.5242     4.9680    40.4647
         TOT.                       35.113    6453.7007    27.7462    84.1687

 400.00  VIB.     0.7992D+02                  3554.8240    20.4337    17.5931
         ROT.     0.1523D+06                  1192.3226     2.9808    26.6956
         INT.     0.1217D+08                  4747.1466    23.4145    44.2887
         TRA.     0.1119D+28                  1987.2043     4.9680    40.5905
         TOT.                       35.394    6734.3508    28.3826    84.8792

   *: NOTE: HEATS OF FORMATION ARE RELATIVE TO THE
            ELEMENTS IN THEIR STANDARD STATE AT 298K
              (=  Standard Enthalpy of Formation).

            Hvib:  Zero-point energy is not included.
                   frequencies of less than zero cm-1 are not included.
            Hrot = (3/2)RT
            Htra = (3/2)RT + pV = (5/2)RT

            Heat capacity is Cp, not Cv

          For more information, see: HTTP://OpenMOPAC.net/Manual/thermochemistry.html


           FORCE CONSTANT IN CARTESIAN COORDINATES (Millidynes/A)

    ATOM   CHEMICAL       X               Y               Z
   NUMBER   SYMBOL  FORCE CONSTANT  FORCE CONSTANT  FORCE CONSTANT

      1       N       11.141110       12.255999        1.217328
      2       C        8.742172       11.312867        1.841795
      3       C       10.591057        9.115149        2.106305
      4       N        8.901626        8.597761        1.243746
      5       C       11.903720        7.610993        1.945549
      6       C        6.925773        7.157194        5.914538
      7       H        1.891256        3.191130        0.323856
      8       H        3.816020        1.240181        0.352161
      9       H        4.004430        1.047619        0.336959
     10       H        0.702555        1.811386        2.787368
     11       H        0.702555        1.811386        2.787368
     12       H        3.935169        0.916374        0.501712

 **********************
 *                    *
 * JOB ENDED NORMALLY *
 *                    *
 **********************



 TOTAL JOB TIME:             0.73 SECONDS

 == MOPAC DONE ==
