 *******************************************************************************
 **                                                                           **
 **                              MOPAC v22.1.1                                **
 **                                                                           **
 *******************************************************************************
 **          Digital Object Identifier (DOI): 10.5281/zenodo.6511958          **
 **    Visit the DOI location for information on how to cite this program.    **
 *******************************************************************************

                              PM6 CALCULATION RESULTS

 *******************************************************************************
 *  CALCULATION DONE:                                Mon Apr 22 11:30:54 2024  *
 *  PM6        - The PM6 Hamiltonian to be used
 *  MMOK       - APPLY MM CORRECTION TO CONH BARRIER
 *  STATIC     - CALCULATE STATIC FIELD POLARIZABILITIES
 *  POLAR      - CALCULATE FIRST, SECOND AND THIRD-ORDER POLARIZABILITIES
 *  PRECISE    - TIGHTER CRITERIA TO BE USED
 *  XYZ        - CARTESIAN COORDINATE SYSTEM TO BE USED
 *  T=         - A TIME OF 172800.0 SECONDS REQUESTED
 *  DUMP=N     - RESTART FILE WRITTEN EVERY 7200.0 SECONDS REQUESTED
 *  CYCLES=    - DO A MAXIMUM OF 8000 STEPS
 *  ENPART     - ENERGY TO BE PARTITIONED INTO COMPONENTS
 *  PRTXYZ     - PRINT CARTESIAN COORDINATES
 *  DISP       - PRINT DISPERSION AND HYDROGEN BOND ENERGIES
 *  BONDS      - FINAL BOND-ORDER MATRIX TO BE PRINTED
 *  LARGE      - EXPANDED OUTPUT TO BE PRINTED
 *  SUPER      - PRINT SUPERDELOCALIZABILITIES
 *  ALLVEC     - PRINT ALL EIGENVECTORS
 *******************************************************************************
PM6 PRECISE POLAR MMOK XYZ ENPART STATIC SUPER BONDS LARGE PRTXYZ DISP ALLVEC CYCLES = 8000
 bmi
 All coordinates are Cartesian
   ATOM   CHEMICAL          X               Y               Z
  NUMBER   SYMBOL      (ANGSTROMS)     (ANGSTROMS)     (ANGSTROMS)
 
     1       N          0.72700000  *  -0.29000000  *   0.44300000  *
     2       C          1.64600000  *  -0.96100000  *  -0.33900000  *
     3       C          2.62400000  *  -0.04500000  *  -0.63500000  *
     4       N          2.33500000  *   1.16900000  *  -0.05900000  *
     5       C          1.19800000  *   0.98700000  *   0.57500000  *
     6       C         -0.51400000  *  -0.82900000  *   0.99500000  *
     7       H          1.52600000  *  -1.99900000  *  -0.60000000  *
     8       H          3.51700000  *  -0.19300000  *  -1.22200000  *
     9       H          0.66900000  *   1.73300000  *   1.15000000  *
    10       H         -0.27800000  *  -1.73900000  *   1.55400000  *
    11       C         -1.57800000  *  -1.13400000  *  -0.07000000  *
    12       H         -0.88400000  *  -0.10000000  *   1.71800000  *
    13       H         -1.17900000  *  -1.88600000  *  -0.75800000  *
    14       C         -2.06500000  *   0.08100000  *  -0.87300000  *
    15       H         -2.42800000  *  -1.60300000  *   0.44000000  *
    16       H         -2.69500000  *  -0.28300000  *  -1.69200000  *
    17       H         -1.20700000  *   0.57000000  *  -1.34700000  *
    18       C         -2.85700000  *   1.10500000  *  -0.05300000  *
    19       H         -3.73200000  *   0.64300000  *   0.41800000  *
    20       H         -3.21400000  *   1.92000000  *  -0.68700000  *
    21       H         -2.25400000  *   1.55500000  *   0.74000000  *
 


          CARTESIAN COORDINATES 

    NO.       ATOM           X           Y           Z

     1         N          0.7270     -0.2900      0.4430
     2         C          1.6460     -0.9610     -0.3390
     3         C          2.6240     -0.0450     -0.6350
     4         N          2.3350      1.1690     -0.0590
     5         C          1.1980      0.9870      0.5750
     6         C         -0.5140     -0.8290      0.9950
     7         H          1.5260     -1.9990     -0.6000
     8         H          3.5170     -0.1930     -1.2220
     9         H          0.6690      1.7330      1.1500
    10         H         -0.2780     -1.7390      1.5540
    11         C         -1.5780     -1.1340     -0.0700
    12         H         -0.8840     -0.1000      1.7180
    13         H         -1.1790     -1.8860     -0.7580
    14         C         -2.0650      0.0810     -0.8730
    15         H         -2.4280     -1.6030      0.4400
    16         H         -2.6950     -0.2830     -1.6920
    17         H         -1.2070      0.5700     -1.3470
    18         C         -2.8570      1.1050     -0.0530
    19         H         -3.7320      0.6430      0.4180
    20         H         -3.2140      1.9200     -0.6870
    21         H         -2.2540      1.5550      0.7400

 General Reference for PM6:
 "Optimization of Parameters for Semiempirical Methods V: Modification of NDDO Approximations
 and Application to 70 Elements", J. J. P. Stewart, J. Mol. Mod., 13, 1173-1213 (2007)
 URL: https://link.springer.com/article/10.1007/s00894-007-0233-4

           Empirical Formula: C7 H12 N2  =    21 atoms



      MOLECULAR POINT GROUP   :   C1  


      RHF CALCULATION, NO. OF DOUBLY OCCUPIED LEVELS = 25


          Geometry optimization using EF

          DIAGONAL MATRIX USED AS START HESSIAN

 CYCLE:     1 TIME:   0.020 TIME LEFT:  2.00D  GRAD.:   134.105 HEAT:  21.67619
 CYCLE:     2 TIME:   0.023 TIME LEFT:  2.00D  GRAD.:   127.658 HEAT:  20.75201
 CYCLE:     3 TIME:   0.012 TIME LEFT:  2.00D  GRAD.:    61.643 HEAT:  18.08056
 CYCLE:     4 TIME:   0.031 TIME LEFT:  2.00D  GRAD.:    26.308 HEAT:  17.08345
 CYCLE:     5 TIME:   0.016 TIME LEFT:  2.00D  GRAD.:    17.293 HEAT:  16.87266
 CYCLE:     6 TIME:   0.008 TIME LEFT:  2.00D  GRAD.:    19.143 HEAT:  16.82872
 CYCLE:     7 TIME:   0.020 TIME LEFT:  2.00D  GRAD.:    11.439 HEAT:  16.74491
 CYCLE:     8 TIME:   0.020 TIME LEFT:  2.00D  GRAD.:     7.238 HEAT:  16.70855
 CYCLE:     9 TIME:   0.008 TIME LEFT:  2.00D  GRAD.:     6.769 HEAT:  16.68824
 CYCLE:    10 TIME:   0.008 TIME LEFT:  2.00D  GRAD.:     8.739 HEAT:  16.67191
 CYCLE:    11 TIME:   0.012 TIME LEFT:  2.00D  GRAD.:     5.799 HEAT:  16.64475
 CYCLE:    12 TIME:   0.016 TIME LEFT:  2.00D  GRAD.:     8.399 HEAT:  16.64288
 CYCLE:    13 TIME:   0.008 TIME LEFT:  2.00D  GRAD.:     5.021 HEAT:  16.62370
 CYCLE:    14 TIME:   0.016 TIME LEFT:  2.00D  GRAD.:     6.116 HEAT:  16.62185
 CYCLE:    15 TIME:   0.012 TIME LEFT:  2.00D  GRAD.:     2.508 HEAT:  16.60821
 CYCLE:    16 TIME:   0.016 TIME LEFT:  2.00D  GRAD.:     4.886 HEAT:  16.60701
 CYCLE:    17 TIME:   0.008 TIME LEFT:  2.00D  GRAD.:     2.201 HEAT:  16.59587
 CYCLE:    18 TIME:   0.008 TIME LEFT:  2.00D  GRAD.:     5.069 HEAT:  16.59079
 CYCLE:    19 TIME:   0.008 TIME LEFT:  2.00D  GRAD.:     3.213 HEAT:  16.57589
 CYCLE:    20 TIME:   0.008 TIME LEFT:  2.00D  GRAD.:     6.904 HEAT:  16.57312
 CYCLE:    21 TIME:   0.008 TIME LEFT:  2.00D  GRAD.:     4.987 HEAT:  16.55541
 CYCLE:    22 TIME:   0.023 TIME LEFT:  2.00D  GRAD.:     4.264 HEAT:  16.54800
 CYCLE:    23 TIME:   0.012 TIME LEFT:  2.00D  GRAD.:     2.624 HEAT:  16.54286
 CYCLE:    24 TIME:   0.008 TIME LEFT:  2.00D  GRAD.:     4.839 HEAT:  16.54282
 CYCLE:    25 TIME:   0.008 TIME LEFT:  2.00D  GRAD.:     3.707 HEAT:  16.53473
 CYCLE:    26 TIME:   0.023 TIME LEFT:  2.00D  GRAD.:     2.290 HEAT:  16.52991
 CYCLE:    27 TIME:   0.008 TIME LEFT:  2.00D  GRAD.:     1.564 HEAT:  16.52645
 CYCLE:    28 TIME:   0.008 TIME LEFT:  2.00D  GRAD.:     4.795 HEAT:  16.52611
 CYCLE:    29 TIME:   0.008 TIME LEFT:  2.00D  GRAD.:     5.760 HEAT:  16.52352
 CYCLE:    30 TIME:   0.008 TIME LEFT:  2.00D  GRAD.:     4.251 HEAT:  16.51463
 CYCLE:    31 TIME:   0.023 TIME LEFT:  2.00D  GRAD.:     2.622 HEAT:  16.50830
 CYCLE:    32 TIME:   0.008 TIME LEFT:  2.00D  GRAD.:     3.015 HEAT:  16.50731
 CYCLE:    33 TIME:   0.008 TIME LEFT:  2.00D  GRAD.:     2.961 HEAT:  16.50127
 CYCLE:    34 TIME:   0.023 TIME LEFT:  2.00D  GRAD.:     3.503 HEAT:  16.50000
 CYCLE:    35 TIME:   0.008 TIME LEFT:  2.00D  GRAD.:     4.636 HEAT:  16.49835
 CYCLE:    36 TIME:   0.008 TIME LEFT:  2.00D  GRAD.:     3.752 HEAT:  16.49381
 CYCLE:    37 TIME:   0.027 TIME LEFT:  2.00D  GRAD.:     2.950 HEAT:  16.48996
 CYCLE:    38 TIME:   0.012 TIME LEFT:  2.00D  GRAD.:     1.007 HEAT:  16.48396
 CYCLE:    39 TIME:   0.012 TIME LEFT:  2.00D  GRAD.:     4.031 HEAT:  16.48661
 CYCLE:    40 TIME:   0.016 TIME LEFT:  2.00D  GRAD.:     2.537 HEAT:  16.48174
 CYCLE:    41 TIME:   0.012 TIME LEFT:  2.00D  GRAD.:     1.319 HEAT:  16.47569
 CYCLE:    42 TIME:   0.012 TIME LEFT:  2.00D  GRAD.:     1.771 HEAT:  16.47068
 CYCLE:    43 TIME:   0.012 TIME LEFT:  2.00D  GRAD.:     2.479 HEAT:  16.46342
 CYCLE:    44 TIME:   0.016 TIME LEFT:  2.00D  GRAD.:     2.916 HEAT:  16.44917
 CYCLE:    45 TIME:   0.012 TIME LEFT:  2.00D  GRAD.:     2.267 HEAT:  16.43607
 CYCLE:    46 TIME:   0.016 TIME LEFT:  2.00D  GRAD.:     1.726 HEAT:  16.41363
 CYCLE:    47 TIME:   0.008 TIME LEFT:  2.00D  GRAD.:     3.527 HEAT:  16.40491
 CYCLE:    48 TIME:   0.012 TIME LEFT:  2.00D  GRAD.:     2.923 HEAT:  16.38174
 CYCLE:    49 TIME:   0.008 TIME LEFT:  2.00D  GRAD.:     2.572 HEAT:  16.35402
 CYCLE:    50 TIME:   0.012 TIME LEFT:  2.00D  GRAD.:     2.557 HEAT:  16.32615
 CYCLE:    51 TIME:   0.008 TIME LEFT:  2.00D  GRAD.:     2.375 HEAT:  16.30786
 CYCLE:    52 TIME:   0.012 TIME LEFT:  2.00D  GRAD.:     1.880 HEAT:  16.29738
 CYCLE:    53 TIME:   0.008 TIME LEFT:  2.00D  GRAD.:     1.852 HEAT:  16.29094
 CYCLE:    54 TIME:   0.012 TIME LEFT:  2.00D  GRAD.:     1.339 HEAT:  16.28598
 CYCLE:    55 TIME:   0.012 TIME LEFT:  2.00D  GRAD.:     1.189 HEAT:  16.28203
 CYCLE:    56 TIME:   0.043 TIME LEFT:  2.00D  GRAD.:     1.495 HEAT:  16.27481
 CYCLE:    57 TIME:   0.016 TIME LEFT:  2.00D  GRAD.:     1.658 HEAT:  16.26813
 CYCLE:    58 TIME:   0.012 TIME LEFT:  2.00D  GRAD.:     1.905 HEAT:  16.25431
 CYCLE:    59 TIME:   0.012 TIME LEFT:  2.00D  GRAD.:     1.756 HEAT:  16.23874
 CYCLE:    60 TIME:   0.008 TIME LEFT:  2.00D  GRAD.:     1.508 HEAT:  16.22746
 CYCLE:    61 TIME:   0.012 TIME LEFT:  2.00D  GRAD.:     1.896 HEAT:  16.22143
 CYCLE:    62 TIME:   0.008 TIME LEFT:  2.00D  GRAD.:     1.054 HEAT:  16.21494
 CYCLE:    63 TIME:   0.012 TIME LEFT:  2.00D  GRAD.:     0.937 HEAT:  16.21123
 CYCLE:    64 TIME:   0.008 TIME LEFT:  2.00D  GRAD.:     0.711 HEAT:  16.20780
 CYCLE:    65 TIME:   0.012 TIME LEFT:  2.00D  GRAD.:     0.401 HEAT:  16.20598
 CYCLE:    66 TIME:   0.012 TIME LEFT:  2.00D  GRAD.:     0.239 HEAT:  16.20597
 CYCLE:    67 TIME:   0.012 TIME LEFT:  2.00D  GRAD.:     0.259 HEAT:  16.20624
 CYCLE:    68 TIME:   0.008 TIME LEFT:  2.00D  GRAD.:     0.265 HEAT:  16.20615
 CYCLE:    69 TIME:   0.012 TIME LEFT:  2.00D  GRAD.:     0.477 HEAT:  16.20653
 CYCLE:    70 TIME:   0.008 TIME LEFT:  2.00D  GRAD.:     0.643 HEAT:  16.20622
 CYCLE:    71 TIME:   0.012 TIME LEFT:  2.00D  GRAD.:     0.920 HEAT:  16.20562
 CYCLE:    72 TIME:   0.008 TIME LEFT:  2.00D  GRAD.:     0.879 HEAT:  16.20348
 CYCLE:    73 TIME:   0.012 TIME LEFT:  2.00D  GRAD.:     0.815 HEAT:  16.19963
 CYCLE:    74 TIME:   0.012 TIME LEFT:  2.00D  GRAD.:     0.631 HEAT:  16.19816
 CYCLE:    75 TIME:   0.012 TIME LEFT:  2.00D  GRAD.:     0.404 HEAT:  16.19753
 CYCLE:    76 TIME:   0.008 TIME LEFT:  2.00D  GRAD.:     0.331 HEAT:  16.19637
 CYCLE:    77 TIME:   0.012 TIME LEFT:  2.00D  GRAD.:     0.307 HEAT:  16.19543
 CYCLE:    78 TIME:   0.012 TIME LEFT:  2.00D  GRAD.:     0.412 HEAT:  16.19446
 CYCLE:    79 TIME:   0.008 TIME LEFT:  2.00D  GRAD.:     0.268 HEAT:  16.19456
 CYCLE:    80 TIME:   0.023 TIME LEFT:  2.00D  GRAD.:     1.476 HEAT:  16.20077
 CYCLE:    81 TIME:   0.016 TIME LEFT:  2.00D  GRAD.:     0.114 HEAT:  16.19531
 CYCLE:    82 TIME:   0.008 TIME LEFT:  2.00D  GRAD.:     0.095 HEAT:  16.19518
 CYCLE:    83 TIME:   0.008 TIME LEFT:  2.00D  GRAD.:     0.085 HEAT:  16.19504
 CYCLE:    84 TIME:   0.012 TIME LEFT:  2.00D  GRAD.:     0.072 HEAT:  16.19506
 CYCLE:    85 TIME:   0.008 TIME LEFT:  2.00D  GRAD.:     0.080 HEAT:  16.19518
 CYCLE:    86 TIME:   0.012 TIME LEFT:  2.00D  GRAD.:     0.077 HEAT:  16.19523
 CYCLE:    87 TIME:   0.008 TIME LEFT:  2.00D  GRAD.:     0.075 HEAT:  16.19534
 CYCLE:    88 TIME:   0.012 TIME LEFT:  2.00D  GRAD.:     0.071 HEAT:  16.19554
 CYCLE:    89 TIME:   0.008 TIME LEFT:  2.00D  GRAD.:     0.072 HEAT:  16.19532


 HEAT OF FORMATION IS ESSENTIALLY STATIONARY

 -------------------------------------------------------------------------------
 PM6 PRECISE POLAR MMOK XYZ ENPART STATIC SUPER BONDS LARGE PRTXYZ DISP ALLVEC CYCLES = 8000
 bmi
 All coordinates are Cartesian


     GEOMETRY OPTIMISED USING EIGENVECTOR FOLLOWING (EF).     
     SCF FIELD WAS ACHIEVED                                   


                              PM6 CALCULATION
                                                       MOPAC v22.1.1 MacOS
                                                       Mon Apr 22 11:30:56 2024




          FINAL HEAT OF FORMATION =         16.19532 KCAL/MOL =      67.76124 KJ/MOL

          TOTAL ENERGY            =     -31808.34028 KCAL/MOL = ELECTRONIC ENERGY + CORE-CORE REPULSION
          ENERGY OF ATOMS         =      31825.01928 KCAL/MOL
                              SUM =         16.67901 KCAL/MOL
          DISPERSION ENERGY       =          0.00000 KCAL/MOL
          MM CORRECTION FOR >N-   =         -0.48368 KCAL/MOL
                              SUM =         16.19532 KCAL/MOL = FINAL HEAT OF FORMATION



          TOTAL ENERGY            =      -1379.34018 EV
          ELECTRONIC ENERGY       =      -7203.51593 EV 
          CORE-CORE REPULSION     =       5824.17575 EV
          COSMO AREA              =        172.98 SQUARE ANGSTROMS
          COSMO VOLUME            =        175.29 CUBIC ANGSTROMS

          GRADIENT NORM           =          0.07175          =       0.01566 PER ATOM
          IONIZATION POTENTIAL    =          9.228628 EV
          HOMO LUMO ENERGIES (EV) =         -9.229  0.802
          NO. OF FILLED LEVELS    =         25
          MOLECULAR WEIGHT        =        124.1852         POINT GROUP:  C1  

          MOLECULAR DIMENSIONS (Angstroms)

            Atom       Atom       Distance
            H    19    H     8     7.78529
            H    20    H    10     4.11608
            H     9    H    13     3.61718


          SCF CALCULATIONS        =        113
 
          WALL-CLOCK TIME         =      1.113 SECONDS
          COMPUTATION TIME        =      4.313 SECONDS




   ATOM   CHEMICAL          X               Y               Z
  NUMBER   SYMBOL      (ANGSTROMS)     (ANGSTROMS)     (ANGSTROMS)
 
     1       N          0.75325819  *  -0.29941248  *   0.43073681  *
     2       C          1.79085325  *  -1.07829167  *  -0.10197091  *
     3       C          2.77432757  *  -0.17644969  *  -0.51851757  *
     4       N          2.36243442  *   1.13247243  *  -0.26954496  *
     5       C          1.13438482  *   1.04848472  *   0.29435075  *
     6       C         -0.53681998  *  -0.80600599  *   0.92970625  *
     7       H          1.76877672  *  -2.14793303  *  -0.13869125  *
     8       H          3.72911969  *  -0.38473468  *  -0.96729048  *
     9       H          0.52672969  *   1.87881409  *   0.61414365  *
    10       H         -0.36179961  *  -1.75718799  *   1.48376758  *
    11       C         -1.54552758  *  -1.04010598  *  -0.20715945  *
    12       H         -0.94997422  *  -0.07954355  *   1.66803438  *
    13       H         -1.07063720  *  -1.64166129  *  -1.00928607  *
    14       C         -2.09731045  *   0.25800385  *  -0.80925509  *
    15       H         -2.37980056  *  -1.65897573  *   0.17955072  *
    16       H         -2.63666318  *   0.01777474  *  -1.74838036  *
    17       H         -1.25936876  *   0.91852425  *  -1.11362206  *
    18       C         -3.03234133  *   1.00552330  *   0.13692659  *
    19       H         -3.89033921  *   0.39003425  *   0.43067804  *
    20       H         -3.42935602  *   1.91160324  *  -0.33718030  *
    21       H         -2.52171921  *   1.31783181  *   1.05453690  *

                             CARTESIAN COORDINATES

   1    N        0.753258193    -0.299412485     0.430736808
   2    C        1.790853245    -1.078291674    -0.101970911
   3    C        2.774327570    -0.176449688    -0.518517566
   4    N        2.362434418     1.132472426    -0.269544964
   5    C        1.134384817     1.048484722     0.294350752
   6    C       -0.536819983    -0.806005994     0.929706253
   7    H        1.768776715    -2.147933034    -0.138691246
   8    H        3.729119691    -0.384734681    -0.967290476
   9    H        0.526729693     1.878814089     0.614143647
  10    H       -0.361799606    -1.757187989     1.483767579
  11    C       -1.545527576    -1.040105981    -0.207159452
  12    H       -0.949974223    -0.079543546     1.668034375
  13    H       -1.070637204    -1.641661292    -1.009286075
  14    C       -2.097310452     0.258003851    -0.809255087
  15    H       -2.379800564    -1.658975733     0.179550722
  16    H       -2.636663177     0.017774740    -1.748380359
  17    H       -1.259368765     0.918524248    -1.113622058
  18    C       -3.032341330     1.005523301     0.136926592
  19    H       -3.890339208     0.390034252     0.430678038
  20    H       -3.429356018     1.911603242    -0.337180305
  21    H       -2.521719208     1.317831812     1.054536896


           Empirical Formula: C7 H12 N2  =    21 atoms



      MOLECULAR POINT GROUP   :   C1  


                EIGENVECTORS  


   Root No.       1         2         3         4         5         6         7         8

                 1 A       2 A       3 A       4 A       5 A       6 A       7 A       8 A   

               -33.846   -30.072   -28.167   -25.676   -25.298   -23.206   -20.985   -20.540
  
  S   N    1    0.5747    0.3742   -0.3279    0.1126   -0.1813   -0.0399    0.1283   -0.1243
  Px  N    1    0.1123   -0.1849   -0.0100    0.2216    0.0257   -0.1768   -0.2031    0.0073
  Py  N    1    0.0567   -0.0922    0.0520   -0.1151   -0.2665   -0.1209    0.1713    0.3927
  Pz  N    1   -0.0589    0.0595   -0.0151   -0.0978   -0.0410    0.1263    0.1088    0.0106
  S   C    2    0.3090    0.0016   -0.1067    0.3919    0.3323   -0.0618   -0.2587    0.0632
  Px  C    2   -0.0668   -0.1283    0.1003   -0.0028    0.1024    0.0485    0.1245    0.3098
  Py  C    2    0.1733   -0.0558   -0.0007    0.0413   -0.0057   -0.0296    0.1178    0.0472
  Pz  C    2    0.0391    0.0530   -0.0538    0.0076   -0.0528   -0.0088   -0.0509   -0.1451
  S   C    3    0.2677   -0.2322    0.1259    0.1468    0.3836    0.1512    0.3137    0.2764
  Px  C    3   -0.1425    0.0521   -0.0026   -0.0566   -0.0232    0.0562    0.1594    0.0441
  Py  C    3    0.0619   -0.1021    0.0998   -0.1806   -0.0590    0.0919    0.1199   -0.2610
  Pz  C    3    0.0690   -0.0297    0.0037    0.0195    0.0068   -0.0174   -0.0684   -0.0319
  S   N    4    0.3751   -0.4046    0.3039   -0.3090    0.0321    0.1705   -0.0251   -0.3333
  Px  N    4   -0.1209    0.0660   -0.0372    0.0989    0.1619    0.0979    0.2485   -0.0255
  Py  N    4   -0.1597    0.1189   -0.0638   -0.0327   -0.1326   -0.0688   -0.1834   -0.0267
  Pz  N    4    0.0490   -0.0264    0.0117   -0.0466   -0.0822   -0.0433   -0.1239    0.0124
  S   C    5    0.3722   -0.1097    0.0599   -0.2232   -0.3735   -0.1496   -0.1313    0.2985
  Px  C    5    0.0813   -0.1872    0.1168   -0.0644    0.0776    0.0508   -0.1648   -0.2537
  Py  C    5   -0.1758   -0.0553    0.0872   -0.0996    0.0215    0.0438   -0.1577   -0.0258
  Pz  C    5   -0.0447    0.0791   -0.0602    0.0259   -0.0404   -0.0060    0.0677    0.1212
  S   C    6    0.1451    0.4313    0.0168   -0.3345    0.1913    0.3391    0.0087    0.0284
  Px  C    6    0.0844    0.0530   -0.1672    0.0644   -0.0909    0.0782    0.1298   -0.1937
  Py  C    6    0.0354    0.0307   -0.0180    0.0026   -0.1173    0.0056    0.1756    0.0660
  Pz  C    6   -0.0388   -0.0741   -0.0311    0.0019   -0.0368    0.1430    0.0208    0.0447
  S   H    7    0.0696    0.0259   -0.0449    0.1578    0.1625   -0.0117   -0.1926    0.0093
  S   H    8    0.0525   -0.0677    0.0446    0.0580    0.1706    0.0897    0.2291    0.1930
  S   H    9    0.0851   -0.0076    0.0245   -0.1162   -0.1866   -0.0650   -0.0671    0.2387
  S   H   10    0.0497    0.1633   -0.0013   -0.1422    0.1245    0.1910   -0.0722   -0.0220
  S   C   11    0.0514    0.3096    0.3351   -0.2018    0.2709   -0.3026   -0.1666    0.1100
  Px  C   11    0.0283    0.0547   -0.0719   -0.0867    0.0480    0.0934   -0.0005   -0.0187
  Py  C   11    0.0111    0.0463    0.0834    0.0515   -0.0626   -0.0146    0.1672   -0.0545
  Pz  C   11    0.0114    0.0480   -0.0311   -0.0899    0.0428    0.1845   -0.0848    0.0938
  S   H   12    0.0511    0.1685    0.0349   -0.1522    0.0434    0.1941    0.0415    0.1085
  S   H   13    0.0260    0.1250    0.1244   -0.0860    0.1351   -0.1838   -0.0953    0.0195
  S   C   14    0.0270    0.2140    0.4576    0.1843   -0.0769   -0.2464    0.2644   -0.1791
  Px  C   14    0.0113    0.0240   -0.0291   -0.0970    0.0709   -0.1124    0.0582    0.0028
  Py  C   14   -0.0047   -0.0376   -0.0183    0.1010   -0.1148    0.1699    0.0444   -0.0370
  Pz  C   14    0.0071    0.0471    0.0647    0.0090   -0.0092    0.1001   -0.1138    0.1010
  S   H   15    0.0141    0.1189    0.1535   -0.0855    0.1271   -0.1316   -0.1491    0.0967
  S   H   16    0.0081    0.0782    0.1907    0.0923   -0.0352   -0.1472    0.1531   -0.1278
  S   H   17    0.0206    0.0929    0.1809    0.0708   -0.0483   -0.1173    0.1787   -0.0993
  S   C   18    0.0120    0.1348    0.3791    0.3430   -0.2575    0.3618   -0.1673    0.0615
  Px  C   18    0.0057    0.0360    0.0603    0.0025    0.0021   -0.0684    0.0954   -0.0370
  Py  C   18   -0.0031   -0.0310   -0.0572    0.0021   -0.0180    0.0797   -0.0416    0.0205
  Pz  C   18   -0.0009   -0.0157   -0.0525   -0.0341    0.0131    0.0831   -0.1109    0.0921
  S   H   19    0.0045    0.0570    0.1625    0.1497   -0.1098    0.1803   -0.1258    0.0541
  S   H   20    0.0039    0.0479    0.1526    0.1649   -0.1284    0.1940   -0.0889    0.0226
  S   H   21    0.0083    0.0667    0.1614    0.1370   -0.1139    0.2053   -0.1106    0.0740


   Root No.       9        10        11        12        13        14        15        16

                 9 A      10 A      11 A      12 A      13 A      14 A      15 A      16 A   

               -19.929   -17.707   -16.506   -15.933   -15.069   -14.864   -14.620   -14.083
  
  S   N    1   -0.1809   -0.0850   -0.0432    0.0596    0.0388   -0.0179    0.0181    0.1051
  Px  N    1   -0.0646    0.3513   -0.1178   -0.0492    0.2597    0.1539   -0.0412   -0.0358
  Py  N    1   -0.0968    0.1530    0.0364    0.0150   -0.2627    0.0949   -0.2220    0.1079
  Pz  N    1    0.0764   -0.0283   -0.2706    0.1784   -0.0467    0.3420    0.1732    0.0921
  S   C    2    0.2707   -0.0300    0.0520    0.0854   -0.0523    0.0357   -0.0721   -0.0816
  Px  C    2    0.1102    0.0130   -0.0325    0.0110   -0.2492    0.0997    0.1953    0.0883
  Py  C    2   -0.2099    0.2682    0.0047   -0.2452    0.1712   -0.1627    0.3898   -0.1368
  Pz  C    2   -0.0435    0.0622   -0.1404    0.0702    0.1875    0.2137    0.0439    0.0239
  S   C    3   -0.0162   -0.1096   -0.0574   -0.0611    0.0809   -0.0504    0.0951    0.0032
  Px  C    3   -0.0406   -0.2188   -0.1474    0.0568    0.2400    0.0499   -0.0468    0.3105
  Py  C    3   -0.2097    0.0049   -0.0013    0.0562    0.0958    0.0925   -0.3150   -0.2405
  Pz  C    3    0.0149    0.1301   -0.0270    0.0346   -0.0597    0.2014    0.1100   -0.0803
  S   N    4    0.0029   -0.1426    0.0145    0.1301   -0.0214    0.0412   -0.0917    0.0157
  Px  N    4   -0.1651   -0.0537   -0.0691    0.0869    0.1467    0.1811   -0.2178   -0.2141
  Py  N    4    0.1539   -0.1163   -0.0151    0.0333    0.0500   -0.0733    0.1269    0.1963
  Pz  N    4    0.0868    0.0517   -0.0837    0.0326   -0.0153    0.1784    0.2302    0.1981
  S   C    5    0.1897   -0.0934   -0.0701   -0.0600    0.0796   -0.0206   -0.0402   -0.0109
  Px  C    5    0.0246    0.1117   -0.0090    0.0438   -0.1250    0.0576    0.2764    0.3280
  Py  C    5    0.2595   -0.2680   -0.0575   -0.0264    0.2797   -0.1051    0.1549   -0.2178
  Pz  C    5    0.0080   -0.0084   -0.1745    0.0775    0.1237    0.2667    0.0109   -0.0776
  S   C    6    0.1847    0.1376    0.0212   -0.0748   -0.0602   -0.0663    0.0233   -0.0216
  Px  C    6    0.0352   -0.2927   -0.1940    0.0105   -0.0740    0.0379    0.1982    0.0186
  Py  C    6    0.0178   -0.0548    0.2201    0.3546   -0.1944    0.0392    0.0752   -0.0625
  Pz  C    6    0.1699    0.3173   -0.2825    0.0971    0.0126    0.1630   -0.0206   -0.1288
  S   H    7    0.2578   -0.1840    0.0246    0.2023   -0.1495    0.1318   -0.3289    0.0457
  S   H    8   -0.0062   -0.2100   -0.1077   -0.0169    0.1984   -0.0681    0.0331    0.2548
  S   H    9    0.2098   -0.2133   -0.0898   -0.0499    0.2778   -0.0289   -0.0477   -0.2906
  S   H   10    0.1356    0.1674   -0.2334   -0.2114    0.0819    0.0082   -0.0297   -0.0181
  S   C   11   -0.2512   -0.0770    0.0252    0.0318    0.0054    0.0608    0.0155    0.0295
  Px  C   11    0.0451   -0.1172    0.2572   -0.3360   -0.1130    0.0477    0.0512   -0.0722
  Py  C   11    0.1677    0.0755    0.2708    0.2238    0.0653   -0.0970    0.1440   -0.0943
  Pz  C   11    0.0191    0.1899    0.1121    0.0295    0.1666   -0.2280   -0.2136    0.2093
  S   H   12    0.1530    0.2443    0.0412    0.1670   -0.0778    0.0651   -0.0113   -0.1241
  S   H   13   -0.1617   -0.1842   -0.0649   -0.1780   -0.1416    0.1977    0.0725   -0.0841
  S   C   14    0.2504    0.0902   -0.0204    0.0205    0.0491   -0.0347    0.0064    0.0202
  Px  C   14    0.0447   -0.0385    0.3174   -0.0833    0.0845    0.2838    0.0970   -0.0824
  Py  C   14    0.1246    0.0416    0.1169   -0.2646    0.1023    0.0695   -0.1721    0.1985
  Pz  C   14   -0.1204    0.0185    0.2083    0.2562    0.2260   -0.0455    0.0443    0.1474
  S   H   15   -0.1891    0.0363   -0.1967    0.1130    0.0763   -0.0167   -0.1292    0.1425
  S   H   16    0.1457    0.0380   -0.2491   -0.0730   -0.1568   -0.0975   -0.0310   -0.0846
  S   H   17    0.2005    0.0273    0.1605   -0.1891    0.0699    0.1618   -0.0345    0.0108
  S   C   18   -0.1387   -0.0630    0.0042   -0.0245   -0.0077    0.0039    0.0107    0.0133
  Px  C   18    0.1169    0.0895    0.2071    0.0518    0.2902    0.1635   -0.0291    0.2226
  Py  C   18   -0.0262   -0.0701    0.1015   -0.3056   -0.0596    0.3297   -0.0825    0.0671
  Pz  C   18   -0.1231   -0.0482    0.1595    0.1518    0.0839    0.1789    0.2083   -0.2119
  S   H   19   -0.1318   -0.0565   -0.1177    0.1042   -0.1208   -0.1831    0.0904   -0.1843
  S   H   20   -0.0706   -0.0739   -0.0377   -0.2383   -0.1361    0.0972   -0.0989    0.0545
  S   H   21   -0.0907   -0.0326    0.1763    0.0386    0.1248    0.2287    0.1000   -0.0420


   Root No.      17        18        19        20        21        22        23        24

                17 A      18 A      19 A      20 A      21 A      22 A      23 A      24 A   

               -13.725   -13.532   -13.518   -12.236   -12.154   -11.920   -10.373   -10.095
  
  S   N    1    0.0210    0.0373   -0.0285    0.0441    0.0001    0.0208    0.1025    0.0118
  Px  N    1    0.1000    0.1536    0.2036   -0.1100   -0.0291    0.0125    0.0826    0.2320
  Py  N    1    0.0850   -0.1598    0.0976   -0.0070    0.0287   -0.0260    0.1817   -0.0367
  Pz  N    1   -0.1907   -0.0683    0.0199    0.0238    0.0566    0.0794    0.0092    0.5343
  S   C    2   -0.0503    0.0171   -0.0215   -0.0000   -0.0183    0.0070    0.0796   -0.0080
  Px  C    2   -0.1988   -0.1701   -0.0525    0.0923    0.0408    0.0138    0.1775    0.1428
  Py  C    2   -0.1125    0.1066   -0.1344   -0.0023   -0.0364    0.0277    0.1361   -0.0293
  Pz  C    2   -0.0932    0.1075    0.1832    0.0005   -0.0355    0.0010   -0.0713    0.3112
  S   C    3   -0.0124    0.0126   -0.0220    0.0032    0.0044   -0.0017   -0.0931    0.0078
  Px  C    3    0.2259    0.1876    0.2659   -0.0258   -0.0575   -0.0344   -0.0481   -0.1053
  Py  C    3   -0.0371   -0.0447    0.0470   -0.0362    0.0139   -0.0300   -0.2498    0.0266
  Pz  C    3   -0.3181   -0.0589    0.0896    0.0901   -0.0503   -0.0580   -0.0196   -0.2209
  S   N    4   -0.0030    0.0345   -0.0182    0.0273   -0.0217    0.0311    0.4233   -0.0275
  Px  N    4   -0.1856    0.0080    0.1031    0.0351   -0.0560   -0.0416    0.3449   -0.2748
  Py  N    4    0.1164    0.1500   -0.0087    0.0139   -0.0450    0.0530    0.6172   -0.0191
  Pz  N    4   -0.1740    0.0390    0.2142    0.0749   -0.0890   -0.0972   -0.1758   -0.5332
  S   C    5    0.0308   -0.0331    0.0549   -0.0229    0.0240   -0.0355   -0.1390    0.0076
  Px  C    5    0.0408    0.0669    0.0877    0.0152   -0.0327   -0.0074   -0.1839   -0.0559
  Py  C    5   -0.1418    0.1362   -0.1291    0.0088   -0.0344    0.0227   -0.0313    0.0165
  Pz  C    5   -0.2513    0.0019    0.1613    0.0306   -0.0477   -0.0584    0.0790   -0.1508
  S   C    6   -0.0136    0.0138    0.0551   -0.0016   -0.0156   -0.0601   -0.0175    0.0024
  Px  C    6   -0.0123   -0.2540   -0.2232    0.0038    0.1523    0.0752   -0.0820   -0.0697
  Py  C    6   -0.0835    0.4085   -0.1658   -0.0573   -0.2336    0.1034   -0.1035    0.0136
  Pz  C    6    0.3033    0.0625   -0.1795   -0.2029    0.0545    0.1671    0.0258   -0.1377
  S   H    7    0.0627   -0.0787    0.0893   -0.0052    0.0197   -0.0204   -0.0748    0.0075
  S   H    8    0.2427    0.1562    0.1289   -0.0422   -0.0235   -0.0026   -0.0687    0.0004
  S   H    9   -0.1331    0.0376   -0.0451   -0.0097   -0.0079   -0.0133   -0.0260    0.0043
  S   H   10    0.1674   -0.2765    0.0441   -0.0456    0.2058   -0.0288    0.0674   -0.0968
  S   C   11   -0.0587    0.0507    0.0073   -0.0308    0.0679   -0.0016    0.0086    0.0551
  Px  C   11   -0.0540   -0.0358    0.3575   -0.2055   -0.2750   -0.1081    0.0547    0.1516
  Py  C   11   -0.0012    0.0433    0.2522   -0.0647    0.4087   -0.2122    0.0337    0.0288
  Pz  C   11   -0.2325    0.0575    0.0615    0.4091   -0.0229   -0.0474   -0.0069    0.1225
  S   H   12    0.1197    0.3041   -0.0927   -0.1412   -0.1726    0.0798   -0.0347   -0.0598
  S   H   13    0.0844   -0.0320   -0.0191   -0.3003   -0.2270    0.0837    0.0102   -0.0111
  S   C   14    0.0045   -0.0649    0.0201   -0.0054    0.0314   -0.0126    0.0060   -0.0040
  Px  C   14    0.1406    0.0395    0.0961    0.1893    0.2877    0.3735   -0.0137   -0.0516
  Py  C   14   -0.1403   -0.0864   -0.0641    0.0273   -0.3124    0.3639   -0.0269    0.0033
  Pz  C   14   -0.1575   -0.1855   -0.0228   -0.4064    0.1943    0.1345    0.0090   -0.0523
  S   H   15   -0.0545    0.0402   -0.2857    0.2589    0.0140    0.1638   -0.0519   -0.0518
  S   H   16    0.0752    0.0849   -0.0011    0.1975   -0.1795   -0.3163    0.0079    0.0615
  S   H   17    0.0531   -0.0127    0.0325    0.2156   -0.0010    0.3718   -0.0231   -0.0291
  S   C   18   -0.0178   -0.0397    0.0049   -0.0757   -0.0233   -0.0003    0.0045    0.0002
  Px  C   18   -0.0131   -0.2404   -0.3178   -0.1735   -0.2160   -0.2746    0.0098    0.0137
  Py  C   18    0.0048    0.3281   -0.2304    0.0798    0.3023   -0.2553    0.0027   -0.0020
  Pz  C   18    0.3649   -0.1647    0.0170    0.3786   -0.1322   -0.1171   -0.0012    0.0236
  S   H   19    0.0674   -0.0499    0.2801    0.1181   -0.0424    0.2715   -0.0075   -0.0050
  S   H   20   -0.1186    0.2981   -0.0586   -0.0685    0.2939   -0.0490    0.0019   -0.0150
  S   H   21    0.2166   -0.1180   -0.1506    0.1590   -0.1289   -0.2419    0.0045    0.0220


   Root No.      25        26        27        28        29        30        31        32

                25 A      26 A      27 A      28 A      29 A      30 A      31 A      32 A   

                -9.229     0.802     1.474     1.764     3.394     3.610     3.785     4.075
  
  S   N    1   -0.0089   -0.0934    0.4979    0.0165    0.0223    0.0402   -0.0144    0.0408
  Px  N    1   -0.1056   -0.1630   -0.1382   -0.0262    0.0067    0.1817   -0.1363    0.2834
  Py  N    1    0.0162    0.0301   -0.0286    0.0082    0.0829    0.2596    0.0036   -0.3197
  Pz  N    1   -0.2445   -0.4321   -0.0641   -0.0485   -0.1521   -0.0297    0.0231   -0.1463
  S   C    2    0.0007    0.0280   -0.1851   -0.0033    0.0045    0.0628    0.0011   -0.1105
  Px  C    2    0.2351    0.1923    0.3158   -0.1228    0.0853    0.1488   -0.1590    0.4065
  Py  C    2   -0.0199    0.0063   -0.1760    0.0091    0.0229    0.1450   -0.0221   -0.1424
  Pz  C    2    0.4974    0.5276   -0.0417   -0.2793    0.0324   -0.0816    0.0919   -0.2004
  S   C    3   -0.0036   -0.0102    0.0569    0.0016    0.0065    0.0413    0.0120   -0.1506
  Px  C    3    0.2362   -0.1274   -0.0577    0.2506    0.0097    0.0578   -0.0590    0.1576
  Py  C    3   -0.0273    0.0078    0.0383   -0.0201    0.1084    0.4277   -0.1708   -0.0455
  Pz  C    3    0.5087   -0.2951   -0.0464    0.5454   -0.0221   -0.0044    0.0135   -0.0725
  S   N    4    0.0078    0.0058   -0.0324   -0.0026   -0.0643   -0.2570    0.1055    0.0179
  Px  N    4   -0.0249   -0.0677   -0.0730   -0.2536    0.0266    0.1663   -0.1111    0.1415
  Py  N    4    0.0154    0.0273   -0.0966    0.0210    0.0511    0.2431   -0.0891   -0.1176
  Pz  N    4   -0.0765   -0.1820    0.0240   -0.5396   -0.0408   -0.0537    0.0416   -0.0733
  S   C    5    0.0031    0.0295   -0.1986   -0.0118   -0.0130    0.0342   -0.0788    0.1129
  Px  C    5   -0.2333    0.1972    0.1575    0.1883    0.1236    0.3244   -0.1343    0.0661
  Py  C    5    0.0103   -0.0769    0.3352    0.0010    0.0948    0.2850   -0.0296   -0.2108
  Pz  C    5   -0.4878    0.4766    0.0143    0.3870    0.0230   -0.1653    0.0778   -0.0361
  S   C    6    0.0040    0.0649   -0.2043   -0.0023   -0.2281    0.1183   -0.1318    0.0264
  Px  C    6    0.0209    0.0513   -0.4761   -0.0206    0.3876    0.0908   -0.0520    0.2191
  Py  C    6    0.0017    0.0308   -0.1862   -0.0097    0.1045    0.1731    0.1285   -0.1802
  Pz  C    6    0.0406   -0.0966    0.1844   -0.0053    0.4444   -0.1617    0.1811   -0.0725
  S   H    7   -0.0006   -0.0062    0.0475    0.0021    0.0387    0.1456   -0.0401   -0.0644
  S   H    8   -0.0005    0.0106   -0.0687   -0.0006   -0.0134   -0.0404    0.0413   -0.0937
  S   H    9   -0.0029   -0.0089    0.0662    0.0035   -0.0000   -0.0417   -0.0009    0.1497
  S   H   10    0.0355    0.0538    0.0179    0.0064   -0.0258    0.1758    0.1710   -0.2009
  S   C   11   -0.0217   -0.0632   -0.0103   -0.0108    0.1738    0.0443    0.2229    0.0647
  Px  C   11   -0.0461   -0.0894   -0.0116   -0.0151    0.4282   -0.1050   -0.0488   -0.0200
  Py  C   11   -0.0159   -0.0226   -0.0100    0.0001    0.0105    0.1794    0.4579    0.1246
  Pz  C   11   -0.0552   -0.1004   -0.0219   -0.0127    0.4783   -0.1447    0.0092   -0.0196
  S   H   12    0.0249    0.0399    0.0158    0.0069   -0.0572   -0.0809   -0.1728    0.2795
  S   H   13    0.0099   -0.0155    0.0368    0.0016    0.0512    0.0064    0.1647    0.0203
  S   C   14   -0.0070   -0.0016    0.0092    0.0059    0.0621   -0.0721   -0.0921    0.0425
  Px  C   14   -0.0117    0.0049    0.0114    0.0092    0.0743   -0.1000   -0.2801   -0.1693
  Py  C   14   -0.0143    0.0092   -0.0077    0.0080   -0.1101    0.2138    0.4939    0.1929
  Pz  C   14    0.0167   -0.0036    0.0014   -0.0033    0.1022   -0.0774   -0.0277    0.0972
  S   H   15    0.0112    0.0316   -0.0797    0.0009    0.0446    0.0656    0.0446    0.0213
  S   H   16   -0.0097   -0.0169   -0.0084   -0.0041    0.1235   -0.0246    0.0356    0.0135
  S   H   17   -0.0054    0.0038   -0.0006   -0.0058   -0.0373   -0.0213   -0.0441    0.0110
  S   C   18    0.0020    0.0005    0.0006   -0.0002   -0.0068   -0.0115   -0.0868   -0.0935
  Px  C   18    0.0060    0.0019   -0.0008   -0.0002   -0.0015   -0.0265   -0.1558   -0.1549
  Py  C   18    0.0002   -0.0015   -0.0030    0.0004   -0.0002    0.0405    0.1589    0.1121
  Pz  C   18   -0.0096   -0.0040   -0.0036    0.0001    0.0232    0.0239    0.1464    0.1108
  S   H   19   -0.0054    0.0015   -0.0002    0.0016   -0.0074    0.0128    0.0066   -0.0213
  S   H   20    0.0034   -0.0013    0.0024   -0.0005    0.0347   -0.0519   -0.1133   -0.0471
  S   H   21   -0.0021    0.0004   -0.0005   -0.0006   -0.0204    0.0025   -0.0148    0.0037


   Root No.      33        34        35        36        37        38        39        40

                33 A      34 A      35 A      36 A      37 A      38 A      39 A      40 A   

                 4.148     4.651     4.923     5.114     5.224     5.274     5.385     5.589
  
  S   N    1   -0.0207    0.0344    0.0165    0.0032    0.0137   -0.0084   -0.0097    0.0080
  Px  N    1   -0.0784    0.2463    0.0339   -0.0073   -0.0195   -0.1724    0.0241    0.0482
  Py  N    1    0.0851    0.1480    0.2491   -0.2732    0.0104   -0.0615    0.0316   -0.0420
  Pz  N    1    0.0511   -0.0661    0.0181    0.0250    0.0118    0.0831    0.0044   -0.0183
  S   C    2    0.0427   -0.0075   -0.1547   -0.1451    0.0763    0.4218   -0.0197   -0.0838
  Px  C    2   -0.0947    0.1020   -0.1968   -0.0327    0.0339    0.2261    0.0278    0.0442
  Py  C    2    0.0605    0.0132    0.0330   -0.2058    0.0200    0.1581    0.0857    0.0542
  Pz  C    2    0.0466   -0.0658    0.0849   -0.0112   -0.0170   -0.0993   -0.0097   -0.0198
  S   C    3    0.0580   -0.2428    0.1370    0.2334   -0.0663   -0.3274   -0.0416    0.0026
  Px  C    3   -0.0403    0.1222   -0.1588   -0.0707    0.0332    0.1965   -0.0023   -0.0178
  Py  C    3    0.0784   -0.1814   -0.0469   -0.0876    0.0408    0.3136    0.0491    0.0343
  Pz  C    3    0.0223   -0.0592    0.0729    0.0353   -0.0143   -0.0770    0.0016    0.0108
  S   N    4   -0.0469    0.1577    0.0234   -0.0835    0.0215    0.0480    0.0206    0.0184
  Px  N    4   -0.0062   -0.0936   -0.1392    0.1807   -0.0416   -0.1685   -0.0731   -0.0717
  Py  N    4    0.0869   -0.2906    0.0566    0.1074   -0.0321   -0.0620    0.0061    0.0225
  Pz  N    4    0.0070    0.0361    0.0736   -0.0765    0.0215    0.0756    0.0386    0.0336
  S   C    5    0.0190   -0.3681   -0.2242    0.3203    0.0022    0.0797   -0.0578    0.0001
  Px  C    5    0.0163    0.0108   -0.0543    0.0395   -0.0653   -0.2350   -0.0676   -0.1014
  Py  C    5    0.0587    0.0291    0.1443   -0.0884    0.0455    0.0743    0.0188    0.0209
  Pz  C    5   -0.0054   -0.0221    0.0140   -0.0307    0.0224    0.1114    0.0205    0.0495
  S   C    6    0.0697   -0.0081   -0.2484   -0.3343    0.1246   -0.2541   -0.0986    0.0287
  Px  C    6   -0.0825    0.0568    0.2166   -0.1103   -0.0868   -0.0594    0.0877    0.0025
  Py  C    6   -0.0208    0.3682   -0.2593    0.2614   -0.0589   -0.0261   -0.0755   -0.0215
  Pz  C    6   -0.0407   -0.1893   -0.2416   -0.1813    0.0719   -0.0710   -0.1701   -0.0007
  S   H    7    0.0312    0.0128    0.1751   -0.0961   -0.0371   -0.2031    0.0905    0.1154
  S   H    8    0.0165    0.0584    0.0624   -0.1708    0.0352    0.1578    0.0544    0.0266
  S   H    9   -0.0713    0.3398    0.0286   -0.1763   -0.0608   -0.2806   -0.0076   -0.0775
  S   H   10   -0.0467    0.3992    0.0179    0.4909   -0.1388    0.1773    0.0562   -0.0337
  S   C   11   -0.1523   -0.0877    0.0553   -0.0591   -0.1036    0.0458   -0.0308   -0.0717
  Px  C   11   -0.0813    0.0564    0.1626    0.1158    0.2703    0.0575   -0.3367    0.0479
  Py  C   11   -0.2781   -0.1361    0.0342   -0.0523   -0.0022   -0.0150    0.0420    0.1449
  Pz  C   11    0.0848   -0.0113   -0.1012   -0.0057   -0.2987    0.0045    0.2543   -0.0545
  S   H   12   -0.0370   -0.1117    0.5430    0.1276   -0.0887    0.1857    0.2261    0.0015
  S   H   13    0.1107   -0.0471   -0.1996   -0.0510   -0.2664   -0.0613    0.3604    0.0535
  S   C   14    0.3102    0.0479    0.0333    0.0224    0.0773    0.0111   -0.1115   -0.1131
  Px  C   14   -0.2350    0.0102   -0.0598    0.0783    0.2042   -0.0403    0.2791   -0.0600
  Py  C   14   -0.0229   -0.0958    0.0568   -0.0051    0.1701   -0.0127    0.1226    0.0307
  Pz  C   14    0.5005    0.1063    0.0334    0.0982    0.1882   -0.0045    0.0594   -0.0376
  S   H   15   -0.1768    0.0469    0.1495    0.0951    0.3887   -0.0067   -0.3000    0.1687
  S   H   16    0.0817    0.0403   -0.0129    0.1139    0.2657   -0.0361    0.3068    0.0243
  S   H   17    0.1341    0.0345   -0.0129   -0.0625   -0.3042    0.0331   -0.2084    0.1017
  S   C   18   -0.1841   -0.0154   -0.0617   -0.0227   -0.0068   -0.0199   -0.0002    0.0152
  Px  C   18   -0.3154   -0.0164   -0.1162    0.0074    0.1755   -0.0894    0.2716    0.0301
  Py  C   18    0.2231   -0.0015    0.0254   -0.0044    0.1923   -0.0288    0.0353   -0.4707
  Pz  C   18    0.3598    0.0442   -0.0432    0.0346    0.1707   -0.0516    0.0708    0.3590
  S   H   19   -0.1007   -0.0210   -0.0295    0.0081    0.2332   -0.0660    0.2344   -0.3721
  S   H   20    0.0241    0.0395   -0.0459    0.0465   -0.0108   -0.0186    0.1005    0.5629
  S   H   21   -0.0976   -0.0244    0.1047   -0.0364   -0.2945    0.1039   -0.2448   -0.1988


   Root No.      41        42        43        44        45        46        47        48

                41 A      42 A      43 A      44 A      45 A      46 A      47 A      48 A   

                 5.667     5.787     5.883     5.924     6.054     6.218     6.406     6.568
  
  S   N    1    0.0143   -0.0128    0.0557   -0.0085   -0.0413   -0.0046    0.0174   -0.0025
  Px  N    1    0.1894   -0.0467    0.2300   -0.0106   -0.2458   -0.0088   -0.0440   -0.0111
  Py  N    1   -0.2323   -0.0256    0.2037   -0.0495    0.0243   -0.0161   -0.0358    0.0034
  Pz  N    1   -0.0958    0.0342   -0.0949   -0.0210    0.1127   -0.0033    0.0170    0.0093
  S   C    2   -0.3737    0.0020   -0.0042   -0.0574   -0.0031   -0.0066   -0.1092    0.0086
  Px  C    2    0.1750    0.0066   -0.0527    0.0130   -0.0688    0.0056    0.0072   -0.0030
  Py  C    2    0.2259    0.0665   -0.1927    0.0671    0.4752   -0.0032    0.0489    0.0062
  Pz  C    2   -0.0766   -0.0002    0.0150   -0.0026    0.0564   -0.0014   -0.0005    0.0014
  S   C    3    0.0282   -0.0136   -0.0043    0.0035   -0.1129   -0.0185   -0.3928    0.0046
  Px  C    3   -0.0470    0.0014    0.0753    0.0053    0.3304   -0.0437   -0.3978    0.0087
  Py  C    3    0.0816    0.0402   -0.2873    0.0011   -0.2571    0.0210   -0.1309    0.0057
  Pz  C    3    0.0277   -0.0000   -0.0478   -0.0027   -0.1652    0.0184    0.1769   -0.0039
  S   N    4    0.0627   -0.0140    0.0838    0.0014    0.0338   -0.0064   -0.0277   -0.0010
  Px  N    4   -0.2141   -0.0012    0.0931   -0.0059    0.2300    0.0004    0.3023   -0.0046
  Py  N    4    0.0777    0.0361   -0.2790    0.0144   -0.2527    0.0218   -0.1375    0.0050
  Pz  N    4    0.1006    0.0057   -0.0534    0.0012   -0.1179    0.0057   -0.1463    0.0032
  S   C    5    0.0543   -0.0284    0.1451    0.0076    0.1443   -0.0121    0.1846   -0.0122
  Px  C    5   -0.3515    0.0345   -0.1133   -0.0092    0.1683    0.0034    0.1687    0.0057
  Py  C    5    0.0207   -0.0923    0.4932   -0.0483    0.0253   -0.0432    0.0766   -0.0143
  Pz  C    5    0.1672   -0.0291    0.0679    0.0062   -0.0757   -0.0181   -0.0723   -0.0057
  S   C    6    0.0839    0.0514    0.1597    0.0181   -0.1225   -0.0236   -0.0320   -0.0380
  Px  C    6   -0.0005   -0.0825    0.1431    0.0116   -0.0856    0.0046   -0.0321    0.0047
  Py  C    6    0.1455   -0.0323    0.0093    0.0579   -0.0814    0.0352   -0.0059   -0.0179
  Pz  C    6    0.0227   -0.0139   -0.0449    0.0809    0.0158   -0.0073    0.0085   -0.0342
  S   H    7    0.4925    0.0541   -0.1636    0.1069    0.3955    0.0013    0.1071   -0.0022
  S   H    8    0.0473    0.0181   -0.1355   -0.0084   -0.2945    0.0595    0.6264   -0.0098
  S   H    9   -0.2659    0.1065   -0.4794    0.0243   -0.0158    0.0556   -0.0710    0.0246
  S   H   10    0.0347   -0.0418   -0.0755    0.0065    0.0102    0.0334    0.0117    0.0162
  S   C   11   -0.0504   -0.2965   -0.0168    0.4616   -0.0099    0.0080    0.0004   -0.0483
  Px  C   11    0.0197   -0.0049   -0.0718   -0.1016    0.0371   -0.0162    0.0109   -0.0088
  Py  C   11   -0.0270    0.1135   -0.0113   -0.2529    0.0193   -0.0947    0.0062    0.0240
  Pz  C   11    0.0153    0.0419    0.0280   -0.1461   -0.0006    0.0812   -0.0056    0.0459
  S   H   12   -0.1329   -0.0627   -0.0225   -0.0725    0.0736    0.0063    0.0121    0.0720
  S   H   13    0.0211    0.2664    0.0541   -0.4470   -0.0038    0.0217   -0.0061    0.0586
  S   C   14    0.0540    0.0128    0.0379   -0.0907    0.0303    0.5426   -0.0276   -0.0055
  Px  C   14   -0.0312    0.3060    0.0816    0.1712   -0.0244    0.1005   -0.0080    0.0852
  Py  C   14   -0.0671    0.1044    0.0468    0.2247   -0.0039    0.1563   -0.0118   -0.0668
  Pz  C   14   -0.0127    0.1689   -0.0009    0.0886   -0.0248   -0.2997    0.0135   -0.0937
  S   H   15    0.0310    0.2268   -0.0387   -0.4017    0.0313   -0.0665    0.0080    0.0333
  S   H   16   -0.0787    0.2756    0.0211    0.2607   -0.0475   -0.4545    0.0197   -0.0220
  S   H   17    0.0246   -0.2600   -0.0949   -0.1521   -0.0068   -0.5419    0.0332   -0.0223
  S   C   18    0.0111   -0.0293    0.0168    0.0621   -0.0172   -0.0642    0.0144    0.6273
  Px  C   18   -0.0178   -0.3334   -0.0838   -0.1506    0.0206   -0.0572    0.0004   -0.1391
  Py  C   18    0.1265   -0.1596   -0.0450   -0.1493    0.0078   -0.0428    0.0053    0.1106
  Pz  C   18   -0.0910   -0.2431   -0.0373   -0.0018    0.0215    0.1374   -0.0041    0.1256
  S   H   19    0.0760   -0.2714   -0.0867   -0.2155    0.0241   -0.0373   -0.0056   -0.4174
  S   H   20   -0.1582   -0.0721   -0.0184    0.0209    0.0214    0.1200   -0.0140   -0.4199
  S   H   21    0.0562    0.4105    0.0796    0.0765   -0.0211   -0.0150   -0.0069   -0.4090

           SUPERDELOCALIZABILITIES

 Mulliken electronegativity:        4.213184
 Parr & Pople absolute hardness:    5.015444
 Schuurmann MO shift alpha:        -4.213184
 
 Ehomo:                            -9.228628
 Elumo:                             0.802260


  a   n        Dn(r)        De(r)   q(r) - Z(r)

  N   1    -0.396489    -0.433342    -5.118915
  C   2    -0.500895    -0.415820    -4.203072
  C   3    -0.478387    -0.410886    -4.100189
  N   4    -0.343744    -0.567751    -5.299367
  C   5    -0.527720    -0.379186    -4.024118
  C   6    -0.493961    -0.335148    -4.119087
  C  11    -0.430053    -0.382495    -4.290952
  C  14    -0.418913    -0.382305    -4.217682
  C  18    -0.369499    -0.405338    -4.463844

 Total:    -3.959660    -3.712269

  a   n        piS(r)

  N   1    -0.175081
  C   2    -0.213488
  C   3    -0.208460
  N   4    -0.192217
  C   5    -0.206773
  C   6    -0.189028
  C  11    -0.194232
  C  14    -0.192729
  C  18    -0.186366

 Total:    -1.758374

  a   n       homo-1         homo         lumo       lumo+1

  N   1    34.082588     7.125101    22.294076    27.199388
  C   2    11.815537    30.303364    31.613613    16.672280
  C   3     6.067582    31.530857    10.349956     1.018729
  N   4    36.087718     0.676591     3.847245     1.628156
  C   5     2.619805    29.255836    27.285223    17.684786
  C   6     2.401854     0.210664     1.712570    33.713280
  C  11     4.186476     0.589075     2.256681     0.081987
  C  14     0.543196     0.067218     0.012556     0.027417
  C  18     0.075151     0.013220     0.002200     0.002295


              NET ATOMIC CHARGES AND DIPOLE CONTRIBUTIONS

  ATOM NO.   TYPE          CHARGE      No. of ELECS.   s-Pop       p-Pop       
    1          N          -0.118915        5.1189     1.46233     3.65658
    2          C          -0.203072        4.2031     1.11146     3.09161
    3          C          -0.100189        4.1002     1.10961     2.99057
    4          N          -0.299367        5.2994     1.73210     3.56727
    5          C          -0.024118        4.0241     1.12144     2.90267
    6          C          -0.119087        4.1191     1.09478     3.02430
    7          H           0.174935        0.8251     0.82506
    8          H           0.174808        0.8252     0.82519
    9          H           0.182068        0.8179     0.81793
   10          H           0.145076        0.8549     0.85492
   11          C          -0.290952        4.2910     1.09413     3.19683
   12          H           0.152451        0.8475     0.84755
   13          H           0.148543        0.8515     0.85146
   14          C          -0.217682        4.2177     1.08042     3.13727
   15          H           0.144646        0.8554     0.85535
   16          H           0.131937        0.8681     0.86806
   17          H           0.140575        0.8594     0.85943
   18          C          -0.463844        4.4638     1.08225     3.38160
   19          H           0.148058        0.8519     0.85194
   20          H           0.150410        0.8496     0.84959
   21          H           0.143720        0.8563     0.85628
 DIPOLE           X         Y         Z       TOTAL
 POINT-CHG.    -3.418    -1.929     0.954     4.039
 HYBRID        -0.629    -0.761     0.336     1.043
 SUM           -4.047    -2.691     1.291     5.028


          ATOMIC ORBITAL ELECTRON POPULATIONS

     Atom    s        px        py        pz   
    1  N   1.46233   1.13424   1.09707   1.42527
    2  C   1.11146   0.95120   1.03666   1.10375
    3  C   1.10961   1.04331   0.89020   1.05706
    4  N   1.73210   1.12944   1.25027   1.18756
    5  C   1.12144   0.96832   0.88352   1.05084
    6  C   1.09478   0.87458   1.11727   1.03245
    7  H   0.82506
    8  H   0.82519
    9  H   0.81793
   10  H   0.85492
   11  C   1.09413   1.07024   1.06299   1.06359
   12  H   0.84755
   13  H   0.85146
   14  C   1.08042   1.07737   1.01115   1.04875
   15  H   0.85535
   16  H   0.86806
   17  H   0.85943
   18  C   1.08225   1.12026   1.13908   1.12225
   19  H   0.85194
   20  H   0.84959
   21  H   0.85628

          BONDING CONTRIBUTION OF EACH M.O.

  1.6109  1.6993  1.8008  1.8199  1.8710  1.9341  1.9542  1.7767  1.9456  1.9280
  1.8519  1.8829  1.9990  1.7774  1.9884  2.0070  1.9546  1.9646  1.9474  1.9824
  1.9915  1.9506  0.9284  1.4666  1.7509 -2.3762 -2.0024 -2.2532 -1.9907 -1.8973
 -1.9598 -1.9012 -1.9965 -1.9740 -1.9668 -1.9964 -1.9614 -1.9937 -1.9640 -1.9659
 -1.9546 -1.9760 -1.9193 -1.9683 -1.9140 -1.9622 -1.9605 -1.9295





            (VALENCIES)   BOND ORDERS

     1  N     (3.529)     5  C 1.209     2  C 1.206     6  C 0.923     4  N 0.094     3  C 0.074
 
     2  C     (3.908)     3  C 1.542     1  N 1.206     7  H 0.953     5  C 0.131     4  N 0.035     6  C 0.016
 
     3  C     (3.947)     2  C 1.542     4  N 1.319     8  H 0.951     1  N 0.074     5  C 0.039     6  C 0.011
 
     4  N     (3.015)     5  C 1.538     3  C 1.319     1  N 0.094     2  C 0.035     6  C 0.019
 
     5  C     (3.911)     4  N 1.538     1  N 1.209     9  H 0.945     2  C 0.131     3  C 0.039     6  C 0.016
 
     6  C     (3.911)    11  C 0.990    10  H 0.963    12  H 0.960     1  N 0.923     4  N 0.019     5  C 0.016
                          2  C 0.016     3  C 0.011
 
     7  H     (0.969)     2  C 0.953
 
     8  H     (0.969)     3  C 0.951
 
     9  H     (0.967)     5  C 0.945
 
    10  H     (0.979)     6  C 0.963
 
    11  C     (3.956)    14  C 1.002     6  C 0.990    13  H 0.966    15  H 0.965
 
    12  H     (0.977)     6  C 0.960
 
    13  H     (0.978)    11  C 0.966
 
    14  C     (3.960)    18  C 1.008    11  C 1.002    16  H 0.971    17  H 0.969
 
    15  H     (0.979)    11  C 0.965
 
    16  H     (0.983)    14  C 0.971
 
    17  H     (0.980)    14  C 0.969
 
    18  C     (3.932)    14  C 1.008    19  H 0.972    21  H 0.972    20  H 0.970
 
    19  H     (0.978)    18  C 0.972
 
    20  H     (0.977)    18  C 0.970
 
    21  H     (0.979)    18  C 0.972
 




 SELF-Q:    SELF OR INACTIVE CHARGE
 ACTIV-Q:   CHARGE WHICH IS USED TO FORM BONDS
 TOTAL-Q:   SELF-Q + ACTIV-Q
 FREE-VA:   TOTAL-Q - VALENCE
 STAT.PROM: TOTAL-Q - CORE CHARGE
 MULL.PROM: -CHARGE (SEE ABOVE)

       SELF-Q    ACTIV-Q   TOTAL-Q   VALENCE   FREE-VA STAT.PROM MULL.PROM


   1   1.59029   3.52863   5.11892   3.52863   0.00000   0.11892   0.11892

   2   0.29517   3.90790   4.20307   3.90790   0.00000   0.20307   0.20307

   3   0.15284   3.94735   4.10019   3.94735   0.00000   0.10019   0.10019

   4   2.28436   3.01501   5.29937   3.01501   0.00000   0.29937   0.29937

   5   0.11324   3.91088   4.02412   3.91088   0.00000   0.02412   0.02412

   6   0.20796   3.91113   4.11909   3.91113   0.00000   0.11909   0.11909

   7  -0.14433   0.96940   0.82506   0.96940   0.00000  -0.17494  -0.17494

   8  -0.14425   0.96944   0.82519   0.96944   0.00000  -0.17481  -0.17481

   9  -0.14892   0.96685   0.81793   0.96685   0.00000  -0.18207  -0.18207

  10  -0.12403   0.97895   0.85492   0.97895   0.00000  -0.14508  -0.14508

  11   0.33502   3.95594   4.29095   3.95594   0.00000   0.29095   0.29095

  12  -0.12921   0.97676   0.84755   0.97676   0.00000  -0.15245  -0.15245

  13  -0.12648   0.97793   0.85146   0.97793   0.00000  -0.14854  -0.14854

  14   0.25810   3.95958   4.21768   3.95958  -0.00000   0.21768   0.21768

  15  -0.12372   0.97908   0.85535   0.97908   0.00000  -0.14465  -0.14465

  16  -0.11453   0.98259   0.86806   0.98259  -0.00000  -0.13194  -0.13194

  17  -0.12081   0.98024   0.85943   0.98024   0.00000  -0.14057  -0.14057

  18   0.53232   3.93152   4.46384   3.93152   0.00000   0.46384   0.46384

  19  -0.12614   0.97808   0.85194   0.97808   0.00000  -0.14806  -0.14806

  20  -0.12779   0.97738   0.84959   0.97738   0.00000  -0.15041  -0.15041

  21  -0.12306   0.97934   0.85628   0.97934  -0.00000  -0.14372  -0.14372

 CLOSED SHELL





          TOTAL ENERGY PARTITIONING

          ALL ENERGIES ARE IN ELECTRON VOLTS

            ONE-CENTER TERMS 
          E-E:  ELECTRON-ELECTRON REPULSION
          E-N:  ELECTRON-NUCLEAR ATTRACTION


   ATOM      E-E       E-N    (E-E + E-N)
   N   1   109.1658 -266.9386 -157.7728
   C   2    80.1182 -180.2567 -100.1385
   C   3    76.4328 -176.1272  -99.6943
   N   4   115.8554 -278.0709 -162.2154
   C   5    73.7065 -173.2210  -99.5144
   C   6    76.9689 -176.7165  -99.7476
   H   7     2.4589   -9.2795   -6.8205
   H   8     2.4597   -9.2809   -6.8212
   H   9     2.4166   -9.1992   -6.7827
   H  10     2.6401   -9.6153   -6.9752
   C  11    83.4091 -183.5731 -100.1640
   H  12     2.5948   -9.5323   -6.9376
   H  13     2.6187   -9.5763   -6.9576
   C  14    80.5993 -180.4940  -99.8947
   H  15     2.6428   -9.6201   -6.9774
   H  16     2.7219   -9.7631   -7.0412
   H  17     2.6680   -9.6659   -6.9979
   C  18    89.9550 -190.3456 -100.3906
   H  19     2.6217   -9.5818   -6.9600
   H  20     2.6073   -9.5553   -6.9480
   H  21     2.6485   -9.6305   -6.9820

              TWO-CENTER TERMS
           
          J:   RESONANCE ENERGY          E-E: ELECTRON-ELECTRON REPULSION
          K:   EXCHANGE ENERGY           E-N: ELECTRON-NUCLEAR ATTRACTION
                                         N-N: NUCLEAR-NUCLEAR REPULSION
          C:   COULOMBIC INTERACTION = E-E + E-N + N-N
          EE:  TOTAL OF ELECTRONIC AND NUCLEAR ENERGIES


     ATOM          J        K       E-E       E-N      N-N      C        EE
     PAIR
 
  C    2  N    1  -16.6906  -6.4063 166.3398 -327.0624 167.2841  6.5615 -16.5354
 
  C    3  N    1    0.3075  -0.2088 119.4463 -234.5276 115.5999  0.5186   0.6172
  C    3  C    2  -16.6852  -7.7588 136.3441 -267.3308 137.2324  6.2457 -18.1983
 
  N    4  N    1    0.3867  -0.2616 149.9589 -291.1791 141.8075  0.5873   0.7124
  N    4  C    2    0.2100  -0.0937 122.6569 -235.4044 113.3572  0.6098   0.7261
  N    4  C    3  -16.9310  -6.8137 167.2856 -328.5464 168.0009  6.7400 -17.0047
 
  C    5  N    1  -16.4366  -6.3406 159.6560 -320.1417 166.8467  6.3611 -16.4161
  C    5  C    2    0.5118  -0.3691  95.2815 -187.2704  92.4330  0.4440   0.5867
  C    5  C    3    0.1723  -0.1088  95.2821 -189.2487  94.5099  0.5433   0.6068
  C    5  N    4  -18.9993  -7.8668 166.9712 -331.2688 171.7929  7.4954 -19.3708
 
  C    6  N    1  -13.5075  -5.0022 159.1911 -315.0488 161.1591  5.3014 -13.2084
  C    6  C    2    0.2315  -0.0480  88.3226 -171.1532  83.0660  0.2354   0.4189
  C    6  C    3   -0.0206  -0.0248  62.9537 -123.1718  60.2498  0.0317  -0.0137
  C    6  N    4   -0.0174  -0.0384  80.1003 -154.7148  74.7044  0.0899   0.0342
  C    6  C    5    0.2230  -0.0478  84.3283 -166.8140  82.6352  0.1495   0.3247

   ATOM          J        K       E-E       E-N      N-N      C        EE
   PAIR
  H    7  N    1    0.0690  -0.0045  24.8671  -54.5109  29.6713  0.0275   0.0920
  H    7  C    2  -12.1041  -5.4020  33.0215  -71.8905  43.9442  5.0752 -12.4310
  H    7  C    3    0.0645  -0.0040  19.6305  -43.0025  23.3764  0.0044   0.0650
  H    7  N    4   -0.0139  -0.0110  17.7240  -38.4204  20.5294 -0.1670  -0.1918
  H    7  C    5   -0.0245  -0.0198  13.7751  -30.4806  16.7077  0.0022  -0.0421
  H    7  C    6    0.0001  -0.0001  15.9462  -34.8806  18.8540 -0.0803  -0.0803

   ATOM          J        K       E-E       E-N      N-N      C        EE
   PAIR
  H    8  N    1   -0.0144  -0.0121  17.5365  -38.4123  20.7959 -0.0799  -0.1065
  H    8  C    2    0.0882  -0.0082  20.2758  -43.8715  23.4880 -0.1077  -0.0277
  H    8  C    3  -12.0104  -5.3786  32.1877  -70.8043  43.7874  5.1708 -12.2182
  H    8  N    4    0.0494  -0.0028  25.9319  -56.0419  29.9797 -0.1303  -0.0837
  H    8  C    5   -0.0274  -0.0205  14.0576  -31.0780  17.0175 -0.0029  -0.0508
  H    8  C    6    0.0005  -0.0015  10.1474  -22.1964  11.9965 -0.0525  -0.0536
  H    8  H    7   -0.0058  -0.0003   3.3369   -8.0883   4.9030  0.1516   0.1455

   ATOM          J        K       E-E       E-N      N-N      C        EE
   PAIR
  H    9  N    1    0.1139  -0.0108  24.5808  -54.0979  29.5233  0.0063   0.1094
  H    9  C    2   -0.0235  -0.0182  14.2258  -31.0305  16.6739 -0.1307  -0.1724
  H    9  C    3   -0.0264  -0.0192  14.0778  -31.0221  16.8851 -0.0592  -0.1048
  H    9  N    4    0.0749  -0.0054  25.5524  -55.5338  29.8424 -0.1390  -0.0695
  H    9  C    5  -12.0233  -5.3453  31.3375  -69.7993  43.7195  5.2577 -12.1108
  H    9  C    6   -0.0041  -0.0003  15.6606  -34.4181  18.6734 -0.0841  -0.0886
  H    9  H    7    0.0002  -0.0001   2.2110   -5.3829   3.2763  0.1043   0.1045
  H    9  H    8    0.0001  -0.0000   2.2372   -5.4463   3.3146  0.1055   0.1056

   ATOM          J        K       E-E       E-N      N-N      C        EE
   PAIR
  H   10  N    1    0.0381  -0.0020  26.4902  -56.8906  30.4776  0.0772   0.1133
  H   10  C    2    0.0145  -0.0027  17.4859  -37.1602  19.5484 -0.1259  -0.1142
  H   10  C    3   -0.0002  -0.0008  12.0556  -25.8992  13.7999 -0.0437  -0.0448
  H   10  N    4    0.0003  -0.0011  14.4291  -30.6365  16.0935 -0.1138  -0.1146
  H   10  C    5   -0.0164  -0.0155  13.8902  -30.1182  16.2247 -0.0032  -0.0351
  H   10  C    6  -11.1513  -5.3292  32.8407  -70.7413  42.5528  4.6523 -11.8283
  H   10  H    7   -0.0063  -0.0003   3.5218   -8.3880   4.9952  0.1291   0.1225
  H   10  H    8    0.0000  -0.0000   2.0070   -4.7797   2.8449  0.0721   0.0722
  H   10  H    9    0.0001  -0.0000   2.5364   -6.0679   3.6273  0.0958   0.0959

   ATOM          J        K       E-E       E-N      N-N      C        EE
   PAIR
  C   11  N    1    0.1167  -0.0172 114.9722 -219.9796 105.3540  0.3466   0.4460
  C   11  C    2    0.0017  -0.0116  73.6406 -139.0884  65.6725  0.2246   0.2147
  C   11  C    3   -0.0001  -0.0035  55.5035 -106.0995  50.6760  0.0799   0.0763
  C   11  N    4    0.0000  -0.0035  70.2714 -132.5131  62.4651  0.2234   0.2199
  C   11  C    5   -0.0012  -0.0148  68.7312 -132.7116  63.9981  0.0177   0.0017
  C   11  C    6  -11.4838  -5.0890 132.5061 -255.4111 127.1592  4.2542 -12.3186
  C   11  H    7   -0.0001  -0.0000  13.9742  -29.9707  15.7971 -0.1994  -0.1995
  C   11  H    8   -0.0000  -0.0000   9.3182  -19.9833  10.5323 -0.1328  -0.1328
  C   11  H    9    0.0001  -0.0000  13.2121  -28.4968  15.0914 -0.1933  -0.1932
  C   11  H   10    0.0430  -0.0015  21.7505  -45.7964  23.9309 -0.1149  -0.0734

   ATOM          J        K       E-E       E-N      N-N      C        EE
   PAIR
  H   12  N    1    0.0352  -0.0021  26.2664  -56.6661  30.4693  0.0696   0.1027
  H   12  C    2   -0.0179  -0.0163  14.2909  -30.5490  16.1496 -0.1085  -0.1427
  H   12  C    3    0.0002  -0.0005  11.2199  -24.2261  12.9644 -0.0417  -0.0420
  H   12  N    4   -0.0002  -0.0004  15.3738  -32.7833  17.2782 -0.1314  -0.1319
  H   12  C    5    0.0135  -0.0021  16.7387  -36.4137  19.6688 -0.0063   0.0051
  H   12  C    6  -11.1215  -5.3119  32.5604  -70.4576  42.5362  4.6390 -11.7945
  H   12  H    7   -0.0001  -0.0000   2.5231   -6.0350   3.6081  0.0962   0.0961
  H   12  H    8   -0.0000  -0.0001   1.8410   -4.4031   2.6323  0.0701   0.0700
  H   12  H    9   -0.0082  -0.0005   3.5032   -8.4163   5.0562  0.1431   0.1345
  H   12  H   10   -0.0371  -0.0007   5.0987  -11.9798   7.1182  0.2371   0.1994
  H   12  C   11    0.0329  -0.0011  21.5114  -45.5272  23.8899 -0.1259  -0.0940

   ATOM          J        K       E-E       E-N      N-N      C        EE
   PAIR
  H   13  N    1    0.0148  -0.0020  21.6814  -46.6530  24.8960 -0.0756  -0.0629
  H   13  C    2   -0.0076  -0.0008  15.9489  -33.9339  17.8558 -0.1293  -0.1377
  H   13  C    3    0.0001  -0.0000  11.7388  -25.2669  13.4831 -0.0451  -0.0450
  H   13  N    4    0.0001  -0.0001  13.9802  -29.7342  15.6379 -0.1161  -0.1161
  H   13  C    5   -0.0011  -0.0002  12.7490  -27.6885  14.9336 -0.0059  -0.0072
  H   13  C    6    0.0087  -0.0021  20.8842  -44.8550  23.9995  0.0286   0.0352
  H   13  H    7   -0.0021  -0.0001   3.1878   -7.6077   4.5381  0.1183   0.1161
  H   13  H    8   -0.0000  -0.0000   1.9991   -4.7705   2.8453  0.0739   0.0739
  H   13  H    9    0.0000  -0.0000   2.3269   -5.5777   3.3412  0.0904   0.0904
  H   13  H   10   -0.0002  -0.0000   3.7715   -8.8409   5.1853  0.1159   0.1157
  H   13  C   11  -11.1636  -5.3510  34.0567  -72.2753  42.7133  4.4947 -12.0199
  H   13  H   12   -0.0161  -0.0082   3.1893   -7.5087   4.4197  0.1003   0.0760

   ATOM          J        K       E-E       E-N      N-N      C        EE
   PAIR
  C   14  N    1    0.0073  -0.0010  92.6856 -178.5019  85.9343  0.1180   0.1243
  C   14  C    2   -0.0003  -0.0001  58.9883 -112.3186  53.4650  0.1347   0.1342
  C   14  C    3   -0.0000  -0.0001  49.5035  -95.3694  45.9211  0.0552   0.0551
  C   14  N    4    0.0000  -0.0003  67.8753 -128.8136  61.1155  0.1772   0.1770
  C   14  C    5    0.0009  -0.0007  66.7034 -129.4976  62.8182  0.0240   0.0242
  C   14  C    6    0.0694  -0.0063  89.4531 -172.0717  82.8765  0.2579   0.3211
  C   14  H    7    0.0000  -0.0000  10.6150  -22.9376  12.2074 -0.1152  -0.1152
  C   14  H    8   -0.0000  -0.0000   8.4196  -18.1846   9.6721 -0.0928  -0.0928
  C   14  H    9    0.0003  -0.0000  13.9947  -30.3734  16.2160 -0.1627  -0.1624
  C   14  H   10   -0.0123  -0.0103  14.1487  -29.9972  15.7296 -0.1190  -0.1415
  C   14  C   11  -11.5627  -5.1531 135.6771 -258.6448 127.4342  4.4664 -12.2494
  C   14  H   12    0.0135  -0.0016  17.4617  -37.2058  19.5962 -0.1478  -0.1359
  C   14  H   13    0.0037  -0.0005  21.4361  -45.5738  24.0873 -0.0503  -0.0470

   ATOM          J        K       E-E       E-N      N-N      C        EE
   PAIR
  H   15  N    1   -0.0115  -0.0113  17.5499  -37.6668  20.0487 -0.0682  -0.0910
  H   15  C    2    0.0004  -0.0009  11.8819  -25.2272  13.2529 -0.0923  -0.0929
  H   15  C    3   -0.0000  -0.0002   9.1475  -19.6405  10.4590 -0.0341  -0.0343
  H   15  N    4   -0.0000  -0.0004  11.5117  -24.4049  12.7976 -0.0956  -0.0960
  H   15  C    5    0.0003  -0.0010  10.8557  -23.5016  12.6382 -0.0077  -0.0084
  H   15  C    6   -0.0018  -0.0048  21.1414  -45.2361  24.1225  0.0278   0.0211
  H   15  H    7   -0.0000  -0.0000   2.3598   -5.6191   3.3439  0.0846   0.0846
  H   15  H    8    0.0000  -0.0000   1.5825   -3.7678   2.2420  0.0567   0.0567
  H   15  H    9   -0.0000  -0.0000   2.1408   -5.1201   3.0599  0.0806   0.0806
  H   15  H   10    0.0063  -0.0001   4.0451   -9.4608   5.5420  0.1264   0.1325
  H   15  C   11  -11.1715  -5.3463  34.2167  -72.4435  42.7446  4.5177 -12.0002
  H   15  H   12   -0.0030  -0.0001   3.7504   -8.8095   5.1774  0.1182   0.1151
  H   15  H   13   -0.0688  -0.0023   5.1662  -12.1073   7.1796  0.2385   0.1674
  H   15  C   14    0.0053  -0.0004  21.4549  -45.5221  24.0226 -0.0447  -0.0398

   ATOM          J        K       E-E       E-N      N-N      C        EE
   PAIR
  H   16  N    1   -0.0001  -0.0000  15.2925  -32.5530  17.2062 -0.0543  -0.0544
  H   16  C    2    0.0001  -0.0001  10.5671  -22.2555  11.6147 -0.0737  -0.0737
  H   16  C    3   -0.0000  -0.0000   9.0521  -19.2795  10.1969 -0.0305  -0.0305
  H   16  N    4   -0.0000  -0.0000  12.1093  -25.4395  13.2360 -0.0942  -0.0942
  H   16  C    5    0.0001  -0.0001  11.1044  -23.8260  12.7109 -0.0107  -0.0107
  H   16  C    6   -0.0133  -0.0118  14.0909  -29.9231  15.7713 -0.0608  -0.0859
  H   16  H    7   -0.0000  -0.0000   1.9601   -4.6338   2.7368  0.0632   0.0632
  H   16  H    8    0.0000  -0.0000   1.5862   -3.7494   2.2143  0.0511   0.0511
  H   16  H    9   -0.0000  -0.0000   2.2836   -5.4225   3.2162  0.0773   0.0772
  H   16  H   10    0.0003  -0.0002   2.4037   -5.5806   3.2389  0.0620   0.0621
  H   16  C   11    0.0136  -0.0013  22.2937  -46.5099  24.1265 -0.0897  -0.0774
  H   16  H   12   -0.0004  -0.0001   2.6892   -6.2709   3.6552  0.0735   0.0730
  H   16  H   13    0.0089  -0.0002   4.0978   -9.5334   5.5548  0.1192   0.1279
  H   16  C   14  -11.1837  -5.3783  34.1389  -72.2359  42.7165  4.6194 -11.9425
  H   16  H   15    0.0007  -0.0000   3.8815   -9.0093   5.2324  0.1046   0.1053

   ATOM          J        K       E-E       E-N      N-N      C        EE
   PAIR
  H   17  N    1   -0.0076  -0.0004  21.0174  -44.9813  23.8877 -0.0762  -0.0841
  H   17  C    2   -0.0003  -0.0000  13.1955  -27.9712  14.6811 -0.0946  -0.0949
  H   17  C    3    0.0000  -0.0000  11.6307  -24.9191  13.2483 -0.0400  -0.0400
  H   17  N    4   -0.0000  -0.0000  16.7924  -35.4922  18.5623 -0.1375  -0.1376
  H   17  C    5   -0.0175  -0.0016  16.8110  -36.2409  19.4140 -0.0159  -0.0350
  H   17  C    6    0.0134  -0.0017  17.1886  -36.7355  19.4787 -0.0682  -0.0565
  H   17  H    7   -0.0000  -0.0000   2.2542   -5.3551   3.1791  0.0782   0.0782
  H   17  H    8   -0.0000  -0.0000   1.9439   -4.6176   2.7410  0.0674   0.0674
  H   17  H    9   -0.0084  -0.0005   3.5586   -8.4915   5.0654  0.1325   0.1236
  H   17  H   10   -0.0004  -0.0001   2.6698   -6.2293   3.6336  0.0741   0.0736
  H   17  C   11    0.0203  -0.0008  21.9497  -46.0632  24.0064 -0.1072  -0.0876
  H   17  H   12   -0.0013  -0.0000   3.3466   -7.8427   4.5950  0.0990   0.0977
  H   17  H   13    0.0000  -0.0000   3.8237   -8.9398   5.2301  0.1139   0.1139
  H   17  C   14  -11.1761  -5.3677  33.8181  -71.9269  42.7094  4.6006 -11.9432
  H   17  H   15   -0.0169  -0.0088   3.2567   -7.5969   4.4305  0.0903   0.0646
  H   17  H   16   -0.0605  -0.0018   5.3025  -12.2784   7.1949  0.2191   0.1568

   ATOM          J        K       E-E       E-N      N-N      C        EE
   PAIR
  C   18  N    1   -0.0001  -0.0000  78.8338 -147.7266  69.0802  0.1874   0.1873
  C   18  C    2    0.0000  -0.0000  50.0760  -92.7558  42.9102  0.2303   0.2303
  C   18  C    3    0.0000  -0.0000  43.3392  -81.2684  38.0259  0.0967   0.0967
  C   18  N    4   -0.0000  -0.0000  61.2684 -113.0507  52.1088  0.3265   0.3265
  C   18  C    5    0.0001  -0.0001  60.1188 -113.5570  53.4873  0.0491   0.0491
  C   18  C    6    0.0140  -0.0037  78.7566 -147.0422  68.5392  0.2537   0.2640
  C   18  H    7    0.0000  -0.0000   9.0674  -19.1222   9.8565 -0.1983  -0.1983
  C   18  H    8    0.0000  -0.0000   7.5001  -15.8142   8.1500 -0.1641  -0.1641
  C   18  H    9   -0.0002  -0.0000  13.6887  -29.0087  15.0049 -0.3151  -0.3153
  C   18  H   10   -0.0002  -0.0001  13.0685  -27.0051  13.7077 -0.2290  -0.2292
  C   18  C   11    0.0871  -0.0077  99.0285 -181.5250  83.3027  0.8062   0.8856
  C   18  H   12   -0.0114  -0.0007  18.2114  -37.8181  19.2732 -0.3335  -0.3456
  C   18  H   13   -0.0130  -0.0106  15.0084  -31.1011  15.8251 -0.2676  -0.2912
  C   18  C   14  -11.6945  -5.1985 141.2993 -264.4807 127.9543  4.7728 -12.1202
  C   18  H   15    0.0117  -0.0014  18.7134  -38.6730  19.6421 -0.3175  -0.3072
  C   18  H   16    0.0223  -0.0004  23.1485  -47.4917  24.1231 -0.2202  -0.1983
  C   18  H   17    0.0274  -0.0005  22.8611  -47.1678  24.0608 -0.2459  -0.2191

   ATOM          J        K       E-E       E-N      N-N      C        EE
   PAIR
  H   19  N    1    0.0000  -0.0000  13.0361  -28.0344  14.9456 -0.0527  -0.0527
  H   19  C    2   -0.0000  -0.0000   8.5916  -18.2867   9.6274 -0.0677  -0.0677
  H   19  C    3   -0.0000  -0.0000   7.3407  -15.7957   8.4270 -0.0280  -0.0280
  H   19  N    4    0.0000  -0.0000  10.0641  -21.3569  11.2023 -0.0904  -0.0904
  H   19  C    5   -0.0000  -0.0000   9.5511  -20.6938  11.1307 -0.0119  -0.0119
  H   19  C    6    0.0000  -0.0000  13.5317  -28.9964  15.3920 -0.0727  -0.0727
  H   19  H    7    0.0000  -0.0000   1.6047   -3.8285   2.2829  0.0591   0.0591
  H   19  H    8   -0.0000  -0.0000   1.2898   -3.0769   1.8346  0.0475   0.0475
  H   19  H    9    0.0000  -0.0000   2.1035   -5.0409   3.0187  0.0814   0.0814
  H   19  H   10    0.0000  -0.0000   2.3958   -5.6146   3.2894  0.0707   0.0707
  H   19  C   11    0.0089  -0.0007  17.5104  -36.8849  19.1739 -0.2006  -0.1924
  H   19  H   12   -0.0005  -0.0000   3.0807   -7.2510   4.2667  0.0964   0.0959
  H   19  H   13   -0.0003  -0.0000   2.6840   -6.3028   3.7001  0.0814   0.0810
  H   19  C   14    0.0057  -0.0004  21.3036  -45.2982  23.9413 -0.0533  -0.0480
  H   19  H   15   -0.0119  -0.0007   3.8223   -8.9552   5.2504  0.1174   0.1048
  H   19  H   16    0.0063  -0.0002   3.9011   -9.0730   5.2805  0.1086   0.1147
  H   19  H   17   -0.0172  -0.0091   3.2415   -7.5764   4.4273  0.0924   0.0661
  H   19  C   18  -11.3142  -5.4071  35.5655  -74.2504  43.1306  4.4457 -12.2756

   ATOM          J        K       E-E       E-N      N-N      C        EE
   PAIR
  H   20  N    1    0.0000  -0.0000  12.7462  -27.4524  14.6536 -0.0525  -0.0525
  H   20  C    2   -0.0000  -0.0000   8.3876  -17.8825   9.4281 -0.0669  -0.0669
  H   20  C    3    0.0000  -0.0000   7.5457  -16.2625   8.6876 -0.0292  -0.0292
  H   20  N    4    0.0000  -0.0000  10.8684  -23.0844  12.1138 -0.1021  -0.1021
  H   20  C    5   -0.0000  -0.0000  10.2824  -22.2955  11.9973 -0.0159  -0.0159
  H   20  C    6   -0.0003  -0.0001  11.7467  -25.2236  13.4150 -0.0619  -0.0622
  H   20  H    7   -0.0000  -0.0000   1.5125   -3.6136   2.1578  0.0568   0.0568
  H   20  H    8   -0.0000  -0.0000   1.3266   -3.1692   1.8923  0.0498   0.0498
  H   20  H    9   -0.0000  -0.0000   2.3886   -5.7317   3.4373  0.0941   0.0941
  H   20  H   10   -0.0000  -0.0000   2.0062   -4.7080   2.7621  0.0603   0.0602
  H   20  C   11   -0.0134  -0.0119  14.3476  -30.2777  15.7606 -0.1695  -0.1948
  H   20  H   12    0.0003  -0.0000   2.6660   -6.2836   3.7024  0.0849   0.0851
  H   20  H   13    0.0003  -0.0002   2.3508   -5.5279   3.2497  0.0726   0.0727
  H   20  C   14   -0.0066  -0.0006  21.3332  -45.4127  24.0242 -0.0552  -0.0624
  H   20  H   15   -0.0004  -0.0000   2.6919   -6.3156   3.7043  0.0806   0.0801
  H   20  H   16    0.0059  -0.0001   3.9578   -9.2179   5.3736  0.1135   0.1193
  H   20  H   17    0.0043  -0.0001   3.8938   -9.1138   5.3392  0.1192   0.1234
  H   20  C   18  -11.2933  -5.3946  35.4519  -74.1275  43.1005  4.4248 -12.2630
  H   20  H   19   -0.0726  -0.0025   5.1407  -12.0849   7.1892  0.2450   0.1698

   ATOM          J        K       E-E       E-N      N-N      C        EE
   PAIR
  H   21  N    1   -0.0000  -0.0000  16.3524  -35.0692  18.6528 -0.0641  -0.0641
  H   21  C    2    0.0000  -0.0000   9.9738  -21.1829  11.1355 -0.0736  -0.0736
  H   21  C    3   -0.0000  -0.0000   8.6638  -18.5971   9.9024 -0.0310  -0.0310
  H   21  N    4   -0.0000  -0.0000  12.5514  -26.5645  13.9048 -0.1083  -0.1083
  H   21  C    5   -0.0001  -0.0000  12.8064  -27.6500  14.8248 -0.0188  -0.0189
  H   21  C    6   -0.0031  -0.0002  16.4788  -35.2095  18.6468 -0.0839  -0.0872
  H   21  H    7   -0.0000  -0.0000   1.7753   -4.2250   2.5129  0.0632   0.0632
  H   21  H    8    0.0000  -0.0000   1.4833   -3.5298   2.0992  0.0527   0.0527
  H   21  H    9   -0.0015  -0.0001   3.0696   -7.3376   4.3829  0.1149   0.1132
  H   21  H   10    0.0001  -0.0000   2.6951   -6.2998   3.6815  0.0768   0.0769
  H   21  C   11    0.0085  -0.0007  17.4258  -36.6265  19.0113 -0.1894  -0.1816
  H   21  H   12   -0.0509  -0.0042   4.3420  -10.1939   6.0065  0.1547   0.0995
  H   21  H   13   -0.0003  -0.0000   2.6151   -6.1254   3.5868  0.0766   0.0763
  H   21  C   14    0.0070  -0.0004  21.4026  -45.3778  23.9257 -0.0495  -0.0429
  H   21  H   15   -0.0003  -0.0000   3.2332   -7.5559   4.4146  0.0920   0.0917
  H   21  H   16   -0.0175  -0.0093   3.2948   -7.6434   4.4329  0.0843   0.0575
  H   21  H   17    0.0071  -0.0002   3.8831   -9.0532   5.2822  0.1122   0.1191
  H   21  C   18  -11.3171  -5.4076  35.7444  -74.4205  43.1449  4.4688 -12.2558
  H   21  H   19   -0.0633  -0.0019   5.1775  -12.1238   7.1837  0.2374   0.1722
  H   21  H   20   -0.0716  -0.0025   5.1694  -12.1217   7.1930  0.2407   0.1667
 

                    Total contribution from hydrogen bonds:         0.000 disp.:    0.000 Tot:     0.000 kcal/mol




***  SUMMARY OF ENERGY PARTITION  ***
 ---------------------------------------
     ONE-CENTER TERMS

 ELECTRON-NUCLEAR  (ONE-ELECTRON)        -1920.0438 EV
 ELECTRON-ELECTRON (TWO-ELECTRON)          817.3102 EV

 TOTAL OF ONE-CENTER TERMS               -1102.7336 EV
 ---------------------------------------
     TWO-CENTER TERMS

 RESONANCE ENERGY                         -268.6904 EV
 EXCHANGE ENERGY                          -121.6443 EV

 EXCHANGE + RESONANCE ENERGY:             -390.3347 EV

 ELECTRON-ELECTRON REPULSION              5621.2843 EV
 ELECTRON-NUCLEAR ATTRACTION            -11331.7320 EV
 NUCLEAR-NUCLEAR REPULSION                5824.1757 EV

 TOTAL ELECTROSTATIC INTERACTION           113.7281 EV

 GRAND TOTAL OF TWO-CENTER TERMS          -276.6066 EV
 ---------------------------------------
 ETOT (EONE + ETWO)                      -1379.3402 EV


 ******************** TDHF POLARIZABILITIES ********************



          MOLECULAR WEIGHT =  124.19



          ROTATIONAL CONSTANTS IN CM(-1)

          A =    0.11733598   B =    0.03158443   C =    0.02814519



           PRINCIPAL MOMENTS OF INERTIA IN UNITS OF 10**(-40)*GRAM-CM**2

          A =      238.5692   B =      886.2831   C =      994.5840


 ROTATION MATRIX FOR ORIENTATION OF MOLECULE:

         0.999525    0.022290    0.021270
        -0.024487    0.993699    0.109373
        -0.018698   -0.109842    0.993773


          CARTESIAN COORDINATES 

    NO.       ATOM         X         Y         Z

     1         N        0.6484   -0.3388    0.4158
     2         C        1.7145   -1.0311   -0.1767
     3         C        2.6832   -0.0673   -0.4711
     4         N        2.2348    1.1969   -0.0893
     5         C        0.9989    1.0241    0.4358
     6         C       -0.6380   -0.9257    0.8288
     7         H        1.7193   -2.0905   -0.3307
     8         H        3.6511   -0.2037   -0.9196
     9         H        0.3652    1.8005    0.8315
    10         H       -0.4501   -1.9279    1.2791
    11         C       -1.6192   -1.0560   -0.3480
    12         H       -1.0826   -0.2942    1.6332
    13         H       -1.1148   -1.5551   -1.2009
    14         C       -2.1913    0.2878   -0.8161
    15         H       -2.4452   -1.7320   -0.0492
    16         H       -2.7069    0.1402   -1.7872
    17         H       -1.3642    0.9963   -1.0285
    18         C       -3.1619    0.9058    0.1860
    19         H       -4.0099    0.2428    0.3924
    20         H       -3.5720    1.8494   -0.1945
    21         H       -2.6763    1.1268    1.1429


 ENERGY OF "REORIENTED" SYSTEM WITHOUT FIELD:       16.1953248978


  NFREQ=  3  IWFLB=  0  IBET=  1  IGAM=  1
  ATOL= 0.10000D-02  BTOL= 0.10000D-02    MAXITU=  500    MAXITA=  150


 *****************************************************************
 CALCULATION OF STATIC FIELD QUANTITIES
 *****************************************************************

 +++++ ALPHA AT       0.00000 EV.

                           COMPONENTS OF ALPHA

                     *X           *Y           *Z
           *=X:     111.1865       4.3071     -13.5016
           *=Y:       4.3062     104.1633       2.9416
           *=Z:     -13.5023       2.9407      81.5984

  ISOTROPIC AVERAGE ALPHA =      98.98277 A.U. =     14.66773 ANG.**3

 +++++ BETA (SECOND HARMONIC GENERATION) AT       0.00000 EV.

                              COMPONENTS OF BETA
            *XX         *XY         *YY         *XZ         *YZ         *ZZ
   *=X    30.92091    35.11326    73.06528     0.04906     0.15311    11.22085
   *=Y    35.06249    73.09693    38.92627     0.17468   -33.86959    10.17970
   *=Z     0.04473     0.14646   -33.86268    11.22305    10.19207   -14.92079


 AVERAGE BETAX(SHG) VALUE AT   0.00000 EV =         69.1378 a.u. =  0.597310E-30 ESU
 AVERAGE BETAY(SHG) VALUE AT   0.00000 EV =         50.5263 a.u. =  0.436518E-30 ESU
 AVERAGE BETAZ(SHG) VALUE AT   0.00000 EV =        -29.2443 a.u. = -0.252653E-30 ESU



 AVERAGE BETA (SHG) VALUE AT   0.00000 EV =         90.4885 a.u. =  0.781768E-30 ESU
   (1 a.u. = 8.639418X10-33 esu)



 +++++ ALPHA AT       0.00000 EV.

                           COMPONENTS OF ALPHA

                     *X           *Y           *Z
           *=X:     111.1865       4.3071     -13.5016
           *=Y:       4.3063     104.1633       2.9416
           *=Z:     -13.5023       2.9407      81.5984

  ISOTROPIC AVERAGE ALPHA =      98.98274 A.U. =     14.66773 ANG.**3


 GAMMA (THIRD HARMONIC GENERATION) AT    0.00000 EV.


 GAMMA(X,X,X,X) =          9582.79953
 GAMMA(Y,Y,Y,Y) =          2233.26315
 GAMMA(Z,Z,Z,Z) =           776.29365
 GAMMA(X,X,Y,Y) =          2406.56133
 GAMMA(X,X,Z,Z) =           966.81064
 GAMMA(Y,Y,X,X) =          2406.59924
 GAMMA(Y,Y,Z,Z) =           844.68554
 GAMMA(Z,Z,X,X) =           966.81229
 GAMMA(Z,Z,Y,Y) =           844.66931


 AVERAGE GAMMA VALUE AT    0.00000 =          4205.69894 a.u. =         2118.28547 ESU (X10-39)




 **********************************************************************
 CALCULATION FOR A FREQUENCY OF    0.25000 EV  =       0.00919 A.U. 
                  WAVELENGTH OF    4959.37 NM  =    2016.38525 CM(-1)
 **********************************************************************

 +++++ ALPHA AT       0.25000 EV.

                           COMPONENTS OF ALPHA

                     *X           *Y           *Z
           *=X:     111.2529       4.3189     -13.5157
           *=Y:       4.3181     104.2237       2.9446
           *=Z:     -13.5161       2.9437      81.6230

  ISOTROPIC AVERAGE ALPHA =      99.03319 A.U. =     14.67520 ANG.**3

 +++++ BETA (SECOND HARMONIC GENERATION) AT       0.25000 EV.

                              COMPONENTS OF BETA
            *XX         *XY         *YY         *XZ         *YZ         *ZZ
   *=X    30.83985    35.43380    73.79022     0.16559     0.16810    11.22038
[...]
 EFFECTIVE MASS      9.6315
 FORCE CONSTANT      1.3407

 VIBRATION         40   40A           ATOM PAIR      ENERGY CONTRIBUTION    RADIAL
 FREQUENCY          1327.75         C 11 -- H 13         +16.4% ( 49.1%)      0.4%
 TRANSITION DIPOLE   0.3690         C 11 -- H 15         +16.3% ( 48.8%)      0.7%
 TRAVEL (Ang.)       0.3396         C  6 -- H 10          +8.8% ( 35.9%)      2.3%
 REDUCED MASS        0.4402         C 14 -- H 16          +8.5% ( 35.3%)      1.7%
 EFFECTIVE MASS      3.9980
 FORCE CONSTANT      0.4573

 VIBRATION         41   41A           ATOM PAIR      ENERGY CONTRIBUTION    RADIAL
 FREQUENCY          1339.31         C 18 -- H 20         +26.5% ( 53.4%)      0.5%
 TRANSITION DIPOLE   0.7036         C 18 -- H 19         +22.2% ( 48.9%)      2.0%
 TRAVEL (Ang.)       0.3672         C 18 -- H 21         +21.5% ( 48.1%)      2.1%
 REDUCED MASS        0.3734         C 14 -- H 16          +8.9% ( 31.0%)      0.0%
 EFFECTIVE MASS      2.3604
 FORCE CONSTANT      0.3946

 VIBRATION         42   42A           ATOM PAIR      ENERGY CONTRIBUTION    RADIAL
 FREQUENCY          1376.85         N  1 -- C  5         +19.7% ( 70.8%)     99.7%
 TRANSITION DIPOLE   0.5715         N  1 -- C  2         +15.2% ( 62.1%)     71.0%
 TRAVEL (Ang.)       0.1284         N  4 -- C  5         +11.1% ( 53.0%)     68.7%
 REDUCED MASS        2.9688         N  1 -- C  6         +10.5% ( 51.6%)      4.5%
 EFFECTIVE MASS     10.9682
 FORCE CONSTANT      3.3159

 VIBRATION         43   43A           ATOM PAIR      ENERGY CONTRIBUTION    RADIAL
 FREQUENCY          1439.09         C  2 -- C  3         +19.3% ( 75.5%)     70.7%
 TRANSITION DIPOLE   0.7019         C  3 -- C  5         +12.2% ( 60.0%)     87.4%
 TRAVEL (Ang.)       0.1342         C  2 -- C  5         +10.9% ( 56.7%)     59.7%
 REDUCED MASS        2.6018         C  3 -- N  4         +10.7% ( 56.2%)     93.2%
 EFFECTIVE MASS     11.7061
 FORCE CONSTANT      3.1747

 VIBRATION         44   44A           ATOM PAIR      ENERGY CONTRIBUTION    RADIAL
 FREQUENCY          1495.92         N  1 -- C  2         +19.8% ( 73.4%)     72.9%
 TRANSITION DIPOLE   1.4402         N  1 -- C  6         +18.7% ( 71.4%)     99.5%
 TRAVEL (Ang.)       0.1000         N  1 -- C  5         +17.4% ( 68.8%)     65.1%
 REDUCED MASS        4.5094         N  1 -- C  3         +15.9% ( 65.9%)     81.8%
 EFFECTIVE MASS     12.5723
 FORCE CONSTANT      5.9454

 VIBRATION         45   45A           ATOM PAIR      ENERGY CONTRIBUTION    RADIAL
 FREQUENCY          1517.64         C  2 -- C  3         +15.5% ( 64.6%)     94.8%
 TRANSITION DIPOLE   0.8840         N  4 -- C  5         +12.6% ( 58.2%)     98.1%
 TRAVEL (Ang.)       0.1421         C  3 -- C  5          +9.9% ( 51.6%)     46.3%
 REDUCED MASS        2.2008         C  2 -- C  5          +9.6% ( 50.8%)      1.1%
 EFFECTIVE MASS     11.9648
 FORCE CONSTANT      2.9865

 VIBRATION         46   46A           ATOM PAIR      ENERGY CONTRIBUTION    RADIAL
 FREQUENCY          2647.24         C  6 -- H 12         +51.1% ( 73.9%)     98.4%
 TRANSITION DIPOLE   0.4806         C  6 -- H 10         +43.5% ( 68.2%)     97.7%
 TRAVEL (Ang.)       0.2330         C 11 -- H 13          +2.5% ( 16.5%)     99.1%
 REDUCED MASS        0.4691         C  6 -- C 11          +1.0% ( 10.2%)      0.2%
 EFFECTIVE MASS      1.4455
 FORCE CONSTANT      1.9368

 VIBRATION         47   47A           ATOM PAIR      ENERGY CONTRIBUTION    RADIAL
 FREQUENCY          2660.72         C 14 -- H 17         +41.8% ( 66.9%)     98.2%
 TRANSITION DIPOLE   0.2694         C 14 -- H 16         +34.0% ( 60.4%)     97.6%
 TRAVEL (Ang.)       0.2841         C 11 -- H 15          +9.5% ( 31.9%)     98.6%
 REDUCED MASS        0.3140         C 11 -- H 13          +4.6% ( 22.2%)     97.0%
 EFFECTIVE MASS      1.4278
 FORCE CONSTANT      1.3096

 VIBRATION         48   48A           ATOM PAIR      ENERGY CONTRIBUTION    RADIAL
 FREQUENCY          2669.26         C 11 -- H 13         +42.7% ( 67.4%)     98.1%
 TRANSITION DIPOLE   0.5117         C 11 -- H 15         +37.1% ( 62.9%)     97.6%
 TRAVEL (Ang.)       0.2714         C 14 -- H 16          +8.8% ( 30.5%)     98.5%
 REDUCED MASS        0.3430         C 14 -- H 17          +4.1% ( 20.8%)     96.5%
 EFFECTIVE MASS      1.4473
 FORCE CONSTANT      1.4399

 VIBRATION         49   49A           ATOM PAIR      ENERGY CONTRIBUTION    RADIAL
 FREQUENCY          2693.36         C 18 -- H 20         +61.8% ( 80.9%)     99.4%
 TRANSITION DIPOLE   0.5550         C 18 -- H 21         +25.0% ( 51.5%)     91.7%
 TRAVEL (Ang.)       0.2307         C 18 -- H 19         +10.1% ( 32.7%)     75.9%
 REDUCED MASS        0.4702         C 14 -- H 17          +1.7% ( 13.6%)     99.8%
 EFFECTIVE MASS      1.4513
 FORCE CONSTANT      2.0097

 VIBRATION         50   50A           ATOM PAIR      ENERGY CONTRIBUTION    RADIAL
 FREQUENCY          2699.18         C 18 -- H 19         +50.4% ( 73.0%)     98.6%
 TRANSITION DIPOLE   0.6397         C 18 -- H 21         +36.6% ( 62.2%)     96.3%
 TRAVEL (Ang.)       0.2475         C 14 -- H 16          +4.8% ( 22.5%)     97.8%
 REDUCED MASS        0.4080         C 14 -- H 17          +3.9% ( 20.4%)     97.1%
 EFFECTIVE MASS      1.4699
 FORCE CONSTANT      1.7512

 VIBRATION         51   51A           ATOM PAIR      ENERGY CONTRIBUTION    RADIAL
 FREQUENCY          2717.20         C  6 -- H 10         +50.8% ( 70.3%)     96.8%
 TRANSITION DIPOLE   0.5327         C  6 -- H 12         +45.6% ( 66.6%)     96.1%
 TRAVEL (Ang.)       0.2322         C 11 -- H 15          +1.6% ( 12.4%)     97.0%
 REDUCED MASS        0.4602         C  6 -- C 11          +0.5% (  6.9%)     35.1%
 EFFECTIVE MASS      1.2414
 FORCE CONSTANT      2.0018

 VIBRATION         52   52A           ATOM PAIR      ENERGY CONTRIBUTION    RADIAL
 FREQUENCY          2738.57         C 11 -- H 13         +33.9% ( 57.4%)     97.4%
 TRANSITION DIPOLE   0.4706         C 11 -- H 15         +27.0% ( 51.3%)     95.8%
 TRAVEL (Ang.)       0.3110         C 14 -- H 16         +22.9% ( 47.2%)     98.3%
 REDUCED MASS        0.2545         C 14 -- H 17         +13.4% ( 36.1%)     94.8%
 EFFECTIVE MASS      1.2346
 FORCE CONSTANT      1.1247

 VIBRATION         53   53A           ATOM PAIR      ENERGY CONTRIBUTION    RADIAL
 FREQUENCY          2741.68         C 14 -- H 17         +32.7% ( 56.3%)     97.1%
 TRANSITION DIPOLE   0.4807         C 14 -- H 16         +27.0% ( 51.2%)     95.5%
 TRAVEL (Ang.)       0.3142         C 11 -- H 15         +22.9% ( 47.2%)     97.5%
 REDUCED MASS        0.2492         C 11 -- H 13         +14.0% ( 36.9%)     93.6%
 EFFECTIVE MASS      1.2712
 FORCE CONSTANT      1.1036

 VIBRATION         54   54A           ATOM PAIR      ENERGY CONTRIBUTION    RADIAL
 FREQUENCY          2768.49         C  5 -- H  9         +89.0% ( 97.0%)    100.0%
 TRANSITION DIPOLE   1.1864         C  3 -- H  8          +3.4% ( 19.0%)    100.0%
 TRAVEL (Ang.)       0.1718         C  2 -- H  7          +2.1% ( 14.9%)    100.0%
 REDUCED MASS        0.8250         C  2 -- C  5          +1.3% ( 11.8%)     77.9%
 EFFECTIVE MASS      1.4275
 FORCE CONSTANT      3.7253

 VIBRATION         55   55A           ATOM PAIR      ENERGY CONTRIBUTION    RADIAL
 FREQUENCY          2781.00         C  3 -- H  8         +73.1% ( 87.7%)    100.0%
 TRANSITION DIPOLE   0.9108         C  2 -- H  7         +21.0% ( 47.0%)    100.0%
 TRAVEL (Ang.)       0.2018         C  3 -- C  5          +1.1% ( 10.8%)     85.9%
 REDUCED MASS        0.5957         N  1 -- C  3          +1.1% ( 10.6%)     93.7%
 EFFECTIVE MASS      1.4181
 FORCE CONSTANT      2.7144

 VIBRATION         56   56A           ATOM PAIR      ENERGY CONTRIBUTION    RADIAL
 FREQUENCY          2788.57         C 18 -- H 19         +34.1% ( 56.2%)     95.9%
 TRANSITION DIPOLE   0.3891         C 18 -- H 20         +32.3% ( 54.8%)     95.6%
 TRAVEL (Ang.)       0.2751         C 18 -- H 21         +32.2% ( 54.6%)     95.5%
 REDUCED MASS        0.3196         C 14 -- H 17          +0.4% (  5.9%)     81.5%
 EFFECTIVE MASS      1.1449
 FORCE CONSTANT      1.4644

 VIBRATION         57   57A           ATOM PAIR      ENERGY CONTRIBUTION    RADIAL
 FREQUENCY          2793.36         C  2 -- H  7         +71.6% ( 86.7%)    100.0%
 TRANSITION DIPOLE   0.7686         C  3 -- H  8         +18.3% ( 43.9%)     99.9%
 TRAVEL (Ang.)       0.2065         C  5 -- H  9          +4.5% ( 21.6%)    100.0%
 REDUCED MASS        0.5663         C  2 -- C  3          +1.7% ( 13.2%)     89.6%
 EFFECTIVE MASS      1.5092
 FORCE CONSTANT      2.6036

      SYMMETRY NUMBER FOR POINT-GROUP C1  =  1


          SYSTEM IS A GROUND STATE


 All coordinates are Cartesian
 bmi


          MOLECULE IS NOT LINEAR

          THERE ARE 57 GENUINE VIBRATIONS IN THIS SYSTEM
          THIS THERMODYNAMICS CALCULATION IS LIMITED TO
          MOLECULES WHICH HAVE NO INTERNAL ROTATIONS




                    CALCULATED THERMODYNAMIC PROPERTIES
                                          *
   TEMP. (K)   PARTITION FUNCTION   H.O.F.    ENTHALPY  HEAT CAPACITY ENTROPY
                                   KCAL/MOL   CAL/MOLE    CAL/K/MOL  CAL/K/MOL


 298.00  VIB.     0.1871D+04                  4178.7166    28.2802    28.9942
         ROT.     0.5173D+06                   888.2803     2.9808    29.1253
         INT.     0.9677D+09                  5066.9969    31.2610    58.1195
         TRA.     0.1338D+28                  1480.4672     4.9680    40.3614
         TOT.                       16.195    6547.4641    36.2290    98.4809

 200.00  VIB.     0.1801D+03                  1943.1798    17.7900    20.0363
         ROT.     0.2844D+06                   596.1613     2.9808    27.9366
         INT.     0.5122D+08                  2539.3410    20.7708    47.9729
         TRA.     0.7356D+27                   993.6021     4.9680    38.3803
         TOT.                       13.181    3532.9432    25.7389    86.3532

 210.00  VIB.     0.2297D+03                  2125.7078    18.7218    20.9267
         ROT.     0.3060D+06                   625.9693     2.9808    28.0820
         INT.     0.7030D+08                  2751.6772    21.7026    49.0087
         TRA.     0.7915D+27                  1043.2822     4.9680    38.6227
         TOT.                       13.443    3794.9594    26.6707    87.6314

 220.00  VIB.     0.2926D+03                  2317.7410    19.6909    21.8198
         ROT.     0.3281D+06                   655.7774     2.9808    28.2207
         INT.     0.9600D+08                  2973.5184    22.6717    50.0405
         TRA.     0.8487D+27                  1092.9623     4.9680    38.8538
         TOT.                       13.714    4066.4808    27.6398    88.8943

 230.00  VIB.     0.3720D+03                  2519.6472    20.6962    22.7172
         ROT.     0.3508D+06                   685.5855     2.9808    28.3532
         INT.     0.1305D+09                  3205.2327    23.6770    51.0704
         TRA.     0.9072D+27                  1142.6424     4.9680    39.0746
         TOT.                       13.996    4347.8751    28.6450    90.1450

 240.00  VIB.     0.4725D+03                  2731.7784    21.7356    23.6198
         ROT.     0.3739D+06                   715.3935     2.9808    28.4801
         INT.     0.1767D+09                  3447.1719    24.7164    52.0999
         TRA.     0.9670D+27                  1192.3226     4.9680    39.2861
         TOT.                       14.287    4639.4945    29.6844    91.3860

 250.00  VIB.     0.5997D+03                  2954.4637    22.8065    24.5287
         ROT.     0.3975D+06                   745.2016     2.9808    28.6017
         INT.     0.2384D+09                  3699.6653    25.7873    53.1305
         TRA.     0.1028D+28                  1242.0027     4.9680    39.4889
         TOT.                       14.590    4941.6680    30.7553    92.6194

 260.00  VIB.     0.7605D+03                  3188.0034    23.9059    25.4445
         ROT.     0.4216D+06                   775.0097     2.9808    28.7187
         INT.     0.3206D+09                  3963.0131    26.8867    54.1632
         TRA.     0.1090D+28                  1291.6828     4.9680    39.6837
         TOT.                       14.903    5254.6959    31.8547    93.8469

 270.00  VIB.     0.9640D+03                  3432.6650    25.0303    26.3678
         ROT.     0.4461D+06                   804.8177     2.9808    28.8312
         INT.     0.4301D+09                  4237.4827    28.0111    55.1989
         TRA.     0.1154D+28                  1341.3629     4.9680    39.8712
         TOT.                       15.227    5578.8456    32.9791    95.0701

 280.00  VIB.     0.1222D+04                  3688.6802    26.1760    27.2987
         ROT.     0.4712D+06                   834.6258     2.9808    28.9396
         INT.     0.5756D+09                  4523.3060    29.1568    56.2383
         TRA.     0.1219D+28                  1391.0430     4.9680    40.0519
         TOT.                       15.562    5914.3489    34.1248    96.2902

 290.00  VIB.     0.1548D+04                  3956.2438    27.3393    28.2375
         ROT.     0.4966D+06                   864.4339     2.9808    29.0442
         INT.     0.7687D+09                  4820.6777    30.3201    57.2817
         TRA.     0.1284D+28                  1440.7231     4.9680    40.2262
         TOT.                       15.909    6261.4008    35.2882    97.5079

 300.00  VIB.     0.1961D+04                  4235.5133    28.5166    29.1842
         ROT.     0.5225D+06                   894.2419     2.9808    29.1452
         INT.     0.1025D+10                  5129.7552    31.4974    58.3294
         TRA.     0.1351D+28                  1490.4032     4.9680    40.3947
         TOT.                       16.268    6620.1584    36.4654    98.7240

 310.00  VIB.     0.2486D+04                  4526.6091    29.7040    30.1386
         ROT.     0.5489D+06                   924.0500     2.9808    29.2430
         INT.     0.1364D+10                  5450.6591    32.6848    59.3815
         TRA.     0.1420D+28                  1540.0833     4.9680    40.5576
         TOT.                       16.639    6990.7424    37.6528    99.9391

 320.00  VIB.     0.3151D+04                  4829.6163    30.8983    31.1005
         ROT.     0.5756D+06                   953.8580     2.9808    29.3376
         INT.     0.1814D+10                  5783.4743    33.8791    60.4381
         TRA.     0.1489D+28                  1589.7634     4.9680    40.7153
         TOT.                       17.021    7373.2377    38.8471   101.1533

 330.00  VIB.     0.3996D+04                  5144.5860    32.0960    32.0696
         ROT.     0.6028D+06                   983.6661     2.9808    29.4293
         INT.     0.2409D+10                  6128.2521    35.0768    61.4989
         TRA.     0.1559D+28                  1639.4435     4.9680    40.8682
         TOT.                       17.416    7767.6956    40.0448   102.3671

 340.00  VIB.     0.5069D+04                  5471.5381    33.2942    33.0455
         ROT.     0.6304D+06                  1013.4742     2.9808    29.5183
         INT.     0.3196D+10                  6485.0123    36.2751    62.5638
         TRA.     0.1631D+28                  1689.1236     4.9680    41.0165
         TOT.                       17.822    8174.1359    41.2431   103.5803

 350.00  VIB.     0.6434D+04                  5810.4633    34.4902    34.0279
         ROT.     0.6585D+06                  1043.2822     2.9808    29.6047
         INT.     0.4237D+10                  6853.7456    37.4710    63.6326
         TRA.     0.1703D+28                  1738.8037     4.9680    41.1605
         TOT.                       18.240    8592.5493    42.4390   104.7931

 360.00  VIB.     0.8171D+04                  6161.3260    35.6813    35.0163
         ROT.     0.6869D+06                  1073.0903     2.9808    29.6887
         INT.     0.5613D+10                  7234.4163    38.6621    64.7049
         TRA.     0.1776D+28                  1788.4838     4.9680    41.3004
         TOT.                       18.671    9022.9001    43.6302   106.0054

 370.00  VIB.     0.1038D+05                  6524.0667    36.8655    36.0100
         ROT.     0.7157D+06                  1102.8984     2.9808    29.7703
         INT.     0.7431D+10                  7626.9651    39.8463    65.7804
         TRA.     0.1851D+28                  1838.1639     4.9680    41.4366
         TOT.                       19.113    9465.1290    44.8143   107.2170

 380.00  VIB.     0.1320D+05                  6898.6051    38.0406    37.0088
         ROT.     0.7449D+06                  1132.7064     2.9808    29.8498
         INT.     0.9833D+10                  8031.3115    41.0214    66.8586
         TRA.     0.1927D+28                  1887.8440     4.9680    41.5690
         TOT.                       19.567    9919.1556    45.9894   108.4277

 390.00  VIB.     0.1679D+05                  7284.8424    39.2050    38.0120
         ROT.     0.7745D+06                  1162.5145     2.9808    29.9273
         INT.     0.1301D+11                  8447.3568    42.1858    67.9393
         TRA.     0.2003D+28                  1937.5242     4.9680    41.6981
         TOT.                       20.033   10384.8810    47.1538   109.6374

 400.00  VIB.     0.2138D+05                  7682.6635    40.3571    39.0191
         ROT.     0.8045D+06                  1192.3226     2.9808    30.0027
         INT.     0.1720D+11                  8874.9861    43.3379    69.0219
         TRA.     0.2081D+28                  1987.2043     4.9680    41.8239
         TOT.                       20.510   10862.1903    48.3059   110.8458

   *: NOTE: HEATS OF FORMATION ARE RELATIVE TO THE
            ELEMENTS IN THEIR STANDARD STATE AT 298K
              (=  Standard Enthalpy of Formation).

            Hvib:  Zero-point energy is not included.
                   frequencies of less than zero cm-1 are not included.
            Hrot = (3/2)RT
            Htra = (3/2)RT + pV = (5/2)RT

            Heat capacity is Cp, not Cv

          For more information, see: HTTP://OpenMOPAC.net/Manual/thermochemistry.html


           FORCE CONSTANT IN CARTESIAN COORDINATES (Millidynes/A)

    ATOM   CHEMICAL       X               Y               Z
   NUMBER   SYMBOL  FORCE CONSTANT  FORCE CONSTANT  FORCE CONSTANT

      1       N       10.993910       11.887960        1.397960
      2       C        8.717295       11.353131        1.847346
      3       C       10.579447        9.141255        2.100442
      4       N        8.895734        8.613278        1.232879
      5       C       11.900801        7.660557        1.978760
      6       C        6.971546        7.190172        6.689975
      7       H        1.884507        3.200954        0.322558
      8       H        3.822053        1.237010        0.351670
      9       H        3.997517        1.049826        0.341370
     10       H        1.153669        2.563234        1.756680
     11       C        6.782202        6.859725        7.133761
     12       H        3.325397        0.869725        1.274435
     13       H        3.386717        0.652003        1.466639
     14       C        7.511343        6.747893        6.781629
     15       H        1.093939        3.649605        0.750853
     16       H        0.806352        0.828840        3.869878
     17       H        1.162894        3.716767        0.650544
     18       C        7.136818        6.340454        6.425833
     19       H        1.212370        3.615420        0.564736
     20       H        1.857593        1.751983        1.767318
     21       H        0.771345        0.877152        3.718457

 **********************
 *                    *
 * JOB ENDED NORMALLY *
 *                    *
 **********************



 TOTAL JOB TIME:             4.28 SECONDS

 == MOPAC DONE ==
