 *******************************************************************************
 **                                                                           **
 **                              MOPAC v22.1.1                                **
 **                                                                           **
 *******************************************************************************
 **          Digital Object Identifier (DOI): 10.5281/zenodo.6511958          **
 **    Visit the DOI location for information on how to cite this program.    **
 *******************************************************************************

                              PM6 CALCULATION RESULTS

 *******************************************************************************
 *  CALCULATION DONE:                                Mon Apr 22 11:30:26 2024  *
 *  PM6        - The PM6 Hamiltonian to be used
 *  MMOK       - APPLY MM CORRECTION TO CONH BARRIER
 *  STATIC     - CALCULATE STATIC FIELD POLARIZABILITIES
 *  POLAR      - CALCULATE FIRST, SECOND AND THIRD-ORDER POLARIZABILITIES
 *  PRECISE    - TIGHTER CRITERIA TO BE USED
 *  XYZ        - CARTESIAN COORDINATE SYSTEM TO BE USED
 *  T=         - A TIME OF 172800.0 SECONDS REQUESTED
 *  DUMP=N     - RESTART FILE WRITTEN EVERY 7200.0 SECONDS REQUESTED
 *  CYCLES=    - DO A MAXIMUM OF 8000 STEPS
 *  ENPART     - ENERGY TO BE PARTITIONED INTO COMPONENTS
 *  PRTXYZ     - PRINT CARTESIAN COORDINATES
 *  DISP       - PRINT DISPERSION AND HYDROGEN BOND ENERGIES
 *  BONDS      - FINAL BOND-ORDER MATRIX TO BE PRINTED
 *  LARGE      - EXPANDED OUTPUT TO BE PRINTED
 *  SUPER      - PRINT SUPERDELOCALIZABILITIES
 *  ALLVEC     - PRINT ALL EIGENVECTORS
 *******************************************************************************
PM6 PRECISE POLAR MMOK XYZ ENPART STATIC SUPER BONDS LARGE PRTXYZ DISP ALLVEC CYCLES = 8000
 mi
 All coordinates are Cartesian
   ATOM   CHEMICAL          X               Y               Z
  NUMBER   SYMBOL      (ANGSTROMS)     (ANGSTROMS)     (ANGSTROMS)
 
     1       N          0.61000000  *   0.01600000  *   0.00000000  *
     2       C         -0.22800000  *   1.11300000  *   0.00000000  *
     3       C         -1.50300000  *   0.60700000  *   0.00000000  *
     4       N         -1.47400000  *  -0.76800000  *   0.00000000  *
     5       C         -0.19900000  *  -1.08600000  *   0.00000000  *
     6       C          2.06400000  *   0.03200000  *   0.00000000  *
     7       H          0.15300000  *   2.12200000  *   0.00000000  *
     8       H         -2.43400000  *   1.15200000  *   0.00000000  *
     9       H          0.20400000  *  -2.08800000  *   0.00000000  *
    10       H          2.44500000  *   0.53700000  *   0.89000000  *
    11       H          2.44500000  *   0.53700000  *  -0.89000000  *
    12       H          2.42700000  *  -0.99600000  *   0.00000000  *
 


          CARTESIAN COORDINATES 

    NO.       ATOM           X           Y           Z

     1         N          0.6100      0.0160      0.0000
     2         C         -0.2280      1.1130      0.0000
     3         C         -1.5030      0.6070      0.0000
     4         N         -1.4740     -0.7680      0.0000
     5         C         -0.1990     -1.0860      0.0000
     6         C          2.0640      0.0320      0.0000
     7         H          0.1530      2.1220      0.0000
     8         H         -2.4340      1.1520      0.0000
     9         H          0.2040     -2.0880      0.0000
    10         H          2.4450      0.5370      0.8900
    11         H          2.4450      0.5370     -0.8900
    12         H          2.4270     -0.9960      0.0000

 General Reference for PM6:
 "Optimization of Parameters for Semiempirical Methods V: Modification of NDDO Approximations
 and Application to 70 Elements", J. J. P. Stewart, J. Mol. Mod., 13, 1173-1213 (2007)
 URL: https://link.springer.com/article/10.1007/s00894-007-0233-4

           Empirical Formula: C4 H6 N2  =    12 atoms



      MOLECULAR POINT GROUP   :   Cs  


      RHF CALCULATION, NO. OF DOUBLY OCCUPIED LEVELS = 16


          Geometry optimization using EF

          DIAGONAL MATRIX USED AS START HESSIAN

 CYCLE:     1 TIME:   0.016 TIME LEFT:  2.00D  GRAD.:   131.572 HEAT:  37.42589
 CYCLE:     2 TIME:   0.008 TIME LEFT:  2.00D  GRAD.:   132.062 HEAT:  37.06464
 CYCLE:     3 TIME:   0.004 TIME LEFT:  2.00D  GRAD.:    64.898 HEAT:  34.33384
 CYCLE:     4 TIME:   0.016 TIME LEFT:  2.00D  GRAD.:    26.721 HEAT:  33.33634
 CYCLE:     5 TIME:   0.004 TIME LEFT:  2.00D  GRAD.:    35.084 HEAT:  33.32546
 CYCLE:     6 TIME:   0.008 TIME LEFT:  2.00D  GRAD.:    20.072 HEAT:  33.06012
 CYCLE:     7 TIME:   0.004 TIME LEFT:  2.00D  GRAD.:    22.287 HEAT:  33.04105
 CYCLE:     8 TIME:   0.008 TIME LEFT:  2.00D  GRAD.:     9.926 HEAT:  32.92554
 CYCLE:     9 TIME:   0.008 TIME LEFT:  2.00D  GRAD.:     6.647 HEAT:  32.90174
 CYCLE:    10 TIME:   0.004 TIME LEFT:  2.00D  GRAD.:     5.266 HEAT:  32.88631
 CYCLE:    11 TIME:   0.004 TIME LEFT:  2.00D  GRAD.:     7.395 HEAT:  32.87879
 CYCLE:    12 TIME:   0.008 TIME LEFT:  2.00D  GRAD.:     5.123 HEAT:  32.86676
 CYCLE:    13 TIME:   0.008 TIME LEFT:  2.00D  GRAD.:     2.234 HEAT:  32.85863
 CYCLE:    14 TIME:   0.004 TIME LEFT:  2.00D  GRAD.:     2.232 HEAT:  32.85365
 CYCLE:    15 TIME:   0.008 TIME LEFT:  2.00D  GRAD.:     4.156 HEAT:  32.85154
 CYCLE:    16 TIME:   0.004 TIME LEFT:  2.00D  GRAD.:     2.692 HEAT:  32.84485
 CYCLE:    17 TIME:   0.004 TIME LEFT:  2.00D  GRAD.:     3.720 HEAT:  32.84399
 CYCLE:    18 TIME:   0.004 TIME LEFT:  2.00D  GRAD.:     2.999 HEAT:  32.84200
 CYCLE:    19 TIME:   0.004 TIME LEFT:  2.00D  GRAD.:     4.738 HEAT:  32.84671
 CYCLE:    20 TIME:   0.004 TIME LEFT:  2.00D  GRAD.:     0.871 HEAT:  32.83880
 CYCLE:    21 TIME:   0.008 TIME LEFT:  2.00D  GRAD.:     1.169 HEAT:  32.83911
 CYCLE:    22 TIME:   0.004 TIME LEFT:  2.00D  GRAD.:     0.170 HEAT:  32.83848
 CYCLE:    23 TIME:   0.004 TIME LEFT:  2.00D  GRAD.:     0.131 HEAT:  32.83847
 CYCLE:    24 TIME:   0.004 TIME LEFT:  2.00D  GRAD.:     0.008 HEAT:  32.83847

     GRADIENT =  0.00817 IS LESS THAN CUTOFF =  0.05000



 -------------------------------------------------------------------------------
 PM6 PRECISE POLAR MMOK XYZ ENPART STATIC SUPER BONDS LARGE PRTXYZ DISP ALLVEC CYCLES = 8000
 mi
 All coordinates are Cartesian


     GEOMETRY OPTIMISED USING EIGENVECTOR FOLLOWING (EF).     
     SCF FIELD WAS ACHIEVED                                   


                              PM6 CALCULATION
                                                       MOPAC v22.1.1 MacOS
                                                       Mon Apr 22 11:30:27 2024




          FINAL HEAT OF FORMATION =         32.83847 KCAL/MOL =     137.39615 KJ/MOL

          TOTAL ENERGY            =     -21440.39810 KCAL/MOL = ELECTRONIC ENERGY + CORE-CORE REPULSION
          ENERGY OF ATOMS         =      21473.73657 KCAL/MOL
                              SUM =         33.33847 KCAL/MOL
          DISPERSION ENERGY       =          0.00000 KCAL/MOL
          MM CORRECTION FOR >N-   =         -0.50000 KCAL/MOL
                              SUM =         32.83847 KCAL/MOL = FINAL HEAT OF FORMATION



          TOTAL ENERGY            =       -929.74366 EV
          ELECTRONIC ENERGY       =      -3701.17923 EV 
          CORE-CORE REPULSION     =       2771.43557 EV
          COSMO AREA              =        121.32 SQUARE ANGSTROMS
          COSMO VOLUME            =        109.07 CUBIC ANGSTROMS

          GRADIENT NORM           =          0.00817          =       0.00236 PER ATOM
          IONIZATION POTENTIAL    =          9.305770 EV
          HOMO LUMO ENERGIES (EV) =         -9.306  0.779
          NO. OF FILLED LEVELS    =         16
          MOLECULAR WEIGHT        =         82.1048         POINT GROUP:  Cs  

          MOLECULAR DIMENSIONS (Angstroms)

            Atom       Atom       Distance
            H    12    H     8     5.40419
            H     9    H     7     3.91635
            H    10    H    11     1.79097


          SCF CALCULATIONS        =         34
 
          WALL-CLOCK TIME         =      0.176 SECONDS
          COMPUTATION TIME        =      0.968 SECONDS




   ATOM   CHEMICAL          X               Y               Z
  NUMBER   SYMBOL      (ANGSTROMS)     (ANGSTROMS)     (ANGSTROMS)
 
     1       N          0.62036134  *   0.00598789  *  -0.00000000  *
     2       C         -0.21853999  *   1.12786437  *  -0.00000000  *
     3       C         -1.52469003  *   0.62692731  *   0.00000000  *
     4       N         -1.50502770  *  -0.76628767  *   0.00000000  *
     5       C         -0.20120355  *  -1.13457529  *  -0.00000000  *
     6       C          2.08440186  *   0.04049753  *   0.00000000  *
     7       H          0.13914157  *   2.13696740  *  -0.00000000  *
     8       H         -2.45159467  *   1.17260196  *   0.00000000  *
     9       H          0.16938938  *  -2.14591742  *  -0.00000000  *
    10       H          2.46710511  *   0.56486094  *   0.89548556  *
    11       H          2.46710511  *   0.56486094  *  -0.89548556  *
    12       H          2.50529169  *  -0.98018546  *  -0.00000000  *

                             CARTESIAN COORDINATES

   1    N        0.620361344     0.005987887    -0.000000001
   2    C       -0.218539991     1.127864372    -0.000000000
   3    C       -1.524690032     0.626927308     0.000000000
   4    N       -1.505027696    -0.766287672     0.000000000
   5    C       -0.201203550    -1.134575290    -0.000000000
   6    C        2.084401862     0.040497533     0.000000001
   7    H        0.139141571     2.136967403    -0.000000000
   8    H       -2.451594673     1.172601962     0.000000000
   9    H        0.169389383    -2.145917424    -0.000000000
  10    H        2.467105108     0.564860942     0.895485561
  11    H        2.467105109     0.564860943    -0.895485563
  12    H        2.505291686    -0.980185461    -0.000000000


           Empirical Formula: C4 H6 N2  =    12 atoms



      MOLECULAR POINT GROUP   :   Cs  


                EIGENVECTORS  


   Root No.       1         2         3         4         5         6         7         8

                 1 a'      2 a'      3 a'      4 a'      5 a'      6 a'      7 a'      1 a"  

               -33.955   -29.812   -25.759   -24.798   -20.813   -20.495   -17.877   -16.287
  
  S   N    1    0.5795   -0.4725    0.0794   -0.2360   -0.0980   -0.2496    0.0908    0.0000
  Px  N    1   -0.1369   -0.2189   -0.1951    0.2368   -0.0363   -0.1177    0.4392   -0.0000
  Py  N    1   -0.0111   -0.0356    0.2819    0.1816    0.4085   -0.1767    0.0604    0.0000
  Pz  N    1    0.0000   -0.0000   -0.0000    0.0000    0.0000    0.0000   -0.0000    0.5013
  S   C    2    0.3095   -0.0289    0.5081    0.1232    0.2515    0.2866    0.0673   -0.0000
  Px  C    2    0.0165   -0.1793   -0.0277   -0.1166    0.2978   -0.2370    0.0906    0.0000
  Py  C    2   -0.1903    0.0061   -0.0371    0.0814    0.0756    0.1929    0.3176   -0.0000
  Pz  C    2    0.0000    0.0000   -0.0000    0.0000   -0.0000    0.0000   -0.0000    0.2516
  S   C    3    0.2668    0.2665    0.2470    0.3633   -0.4032    0.1026    0.1075    0.0000
  Px  C    3    0.1291    0.0153    0.1369   -0.0440    0.1817    0.1656   -0.2423   -0.0000
  Py  C    3   -0.1104   -0.1395    0.1717   -0.0405   -0.0458    0.3232    0.0981    0.0000
  Pz  C    3   -0.0000   -0.0000   -0.0000    0.0000    0.0000   -0.0000   -0.0000    0.1572
  S   N    4    0.3728    0.4801   -0.3202    0.2218    0.1970   -0.2595    0.1835   -0.0000
  Px  N    4    0.1751    0.1191   -0.1285   -0.1155    0.1820    0.1665   -0.1102   -0.0000
  Py  N    4    0.1078    0.1021    0.1156    0.1857   -0.2775   -0.1829   -0.1100   -0.0000
  Pz  N    4   -0.0000   -0.0000    0.0000    0.0000   -0.0000   -0.0000   -0.0000    0.1847
  S   C    5    0.3715    0.1192   -0.3372   -0.3171   -0.0028    0.3765    0.0890    0.0000
  Px  C    5   -0.0280   -0.2504    0.0756   -0.1431   -0.3564    0.0850   -0.0136    0.0000
  Py  C    5    0.1978    0.0021    0.0808   -0.0406   -0.0994   -0.2021   -0.3284   -0.0000
  Pz  C    5   -0.0000    0.0000   -0.0000    0.0000    0.0000    0.0000   -0.0000    0.2676
  S   C    6    0.1449   -0.4140   -0.3063    0.4754    0.0435    0.1220   -0.1103   -0.0000
  Px  C    6   -0.1042    0.1365   -0.0336    0.1134    0.0672    0.2245   -0.4363   -0.0000
  Py  C    6   -0.0035   -0.0012    0.0676    0.0469    0.1632   -0.0717    0.0239    0.0000
  Pz  C    6   -0.0000    0.0000   -0.0000    0.0000    0.0000    0.0000   -0.0000    0.5920
  S   H    7    0.0693   -0.0356    0.2114    0.0834    0.2164    0.2057    0.2371   -0.0000
  S   H    8    0.0521    0.0801    0.1004    0.1749   -0.2919    0.0653    0.2136    0.0000
  S   H    9    0.0843    0.0131   -0.1779   -0.1444   -0.0178    0.3151    0.2308    0.0000
  S   H   10    0.0486   -0.1574   -0.1245    0.2454    0.0808    0.0880   -0.1423    0.3198
  S   H   11    0.0486   -0.1574   -0.1245    0.2454    0.0808    0.0880   -0.1423   -0.3198
  S   H   12    0.0503   -0.1558   -0.1769    0.2117   -0.0508    0.1570   -0.1706   -0.0000


   Root No.       9        10        11        12        13        14        15        16

                 8 a'      9 a'     10 a'     11 a'      2 a"     12 a'      3 a"      4 a"  

               -15.525   -14.633   -14.103   -13.855   -13.846   -10.452   -10.174    -9.306
  
  S   N    1    0.0138   -0.0365    0.0380   -0.0856    0.0000   -0.1114    0.0000    0.0000
  Px  N    1   -0.1199   -0.2829   -0.0878    0.2029   -0.0000    0.1126    0.0000    0.0000
  Py  N    1    0.2908   -0.0022   -0.3032   -0.1818    0.0000    0.1489    0.0000    0.0000
  Pz  N    1   -0.0000   -0.0000   -0.0000   -0.0000   -0.2668    0.0000   -0.5923   -0.2674
  S   C    2   -0.1297    0.0748   -0.0704    0.0464   -0.0000   -0.0806   -0.0000   -0.0000
  Px  C    2    0.0523    0.3963    0.0573   -0.2502    0.0000    0.2321    0.0000    0.0000
  Py  C    2   -0.3621    0.1718    0.3519    0.1069   -0.0000    0.0651    0.0000   -0.0000
  Pz  C    2   -0.0000   -0.0000   -0.0000   -0.0000   -0.3064    0.0000   -0.3485    0.5504
  S   C    3    0.1371   -0.0731   -0.0439   -0.0167    0.0000    0.0929    0.0000    0.0000
  Px  C    3   -0.1694   -0.2530   -0.2539    0.4189   -0.0000   -0.1216   -0.0000    0.0000
  Py  C    3    0.0909   -0.3371    0.1559   -0.2880    0.0000   -0.2273   -0.0000   -0.0000
  Pz  C    3   -0.0000   -0.0000   -0.0000   -0.0000   -0.3545   -0.0000    0.2537    0.5615
  S   N    4   -0.1196    0.0770    0.0040   -0.0305    0.0000   -0.4284   -0.0000   -0.0000
  Px  N    4   -0.0179   -0.3305    0.1235   -0.0440    0.0000    0.5706    0.0000    0.0000
  Py  N    4   -0.0425    0.2730   -0.0935    0.2985   -0.0000    0.4583    0.0000    0.0000
  Pz  N    4   -0.0000   -0.0000   -0.0000   -0.0000   -0.4421   -0.0000    0.6079   -0.0745
  S   C    5    0.1273    0.0676    0.0540    0.0102   -0.0000    0.1441    0.0000   -0.0000
  Px  C    5    0.0064    0.3519   -0.0474    0.2184   -0.0000   -0.1964   -0.0000   -0.0000
  Py  C    5   -0.2753   -0.1093    0.4237   -0.0634    0.0000    0.0419   -0.0000   -0.0000
  Pz  C    5   -0.0000   -0.0000   -0.0000   -0.0000   -0.3826   -0.0000    0.1619   -0.5440
  S   C    6    0.0022   -0.0440   -0.0027    0.0155   -0.0000    0.0246   -0.0000   -0.0000
  Px  C    6    0.0906    0.2997    0.0725   -0.1778    0.0000   -0.1086   -0.0000    0.0000
  Py  C    6    0.4916   -0.0150    0.4083    0.3747   -0.0000   -0.0622   -0.0000   -0.0000
  Pz  C    6   -0.0000    0.0000    0.0000    0.0000    0.4558   -0.0000    0.1669    0.0535
  S   H    7   -0.2890    0.2603    0.2213    0.0469   -0.0000    0.0760    0.0000    0.0000
  S   H    8    0.2063   -0.0043    0.1876   -0.3798    0.0000    0.0716    0.0000   -0.0000
  S   H    9    0.2485    0.2058   -0.2849    0.1003   -0.0000    0.0263    0.0000    0.0000
  S   H   10    0.1821    0.0500    0.1646    0.0987    0.2826   -0.0425    0.1411    0.0546
  S   H   11    0.1821    0.0500    0.1646    0.0987   -0.2826   -0.0425   -0.1411   -0.0546
  S   H   12   -0.2860    0.0796   -0.2757   -0.3027    0.0000    0.0368    0.0000    0.0000


   Root No.      17        18        19        20        21        22        23        24

                 5 a"     13 a'      6 a"     14 a'     15 a'     16 a'      7 a"     17 a'  

                 0.779     1.291     1.695     3.517     3.929     4.515     4.567     4.854
  
  S   N    1    0.0000    0.5137   -0.0000   -0.0483    0.0448   -0.0377   -0.0000    0.0173
  Px  N    1    0.0000    0.1314    0.0000    0.3022   -0.2063    0.2803    0.0000   -0.2108
  Py  N    1    0.0000   -0.0027    0.0000    0.1839    0.4075   -0.0445   -0.0000   -0.3335
  Pz  N    1   -0.4898    0.0000   -0.0560    0.0000    0.0000    0.0000   -0.1105   -0.0000
  S   C    2   -0.0000   -0.1843    0.0000   -0.0598   -0.1224    0.0104   -0.0000   -0.1292
  Px  C    2   -0.0000   -0.2281    0.0000    0.2544   -0.3979    0.1680    0.0000    0.1610
  Py  C    2    0.0000    0.2647   -0.0000    0.0645    0.2863   -0.0941   -0.0000   -0.1594
  Pz  C    2    0.5697   -0.0000   -0.3031   -0.0000   -0.0000   -0.0000    0.0451   -0.0000
  S   C    3    0.0000    0.0596    0.0000   -0.0340   -0.1395    0.2675    0.0000    0.0351
  Px  C    3    0.0000    0.0240    0.0000    0.2215   -0.1525    0.0924    0.0000    0.1489
  Py  C    3   -0.0000   -0.0442    0.0000    0.4169    0.0730   -0.2510   -0.0000    0.0236
  Pz  C    3   -0.3253    0.0000    0.6033   -0.0000    0.0000    0.0000   -0.0133    0.0000
  S   N    4   -0.0000   -0.0326    0.0000    0.2818    0.0017   -0.1664   -0.0000    0.0737
  Px  N    4    0.0000    0.1116   -0.0000    0.2771   -0.1273   -0.1640   -0.0000    0.2182
  Py  N    4    0.0000    0.0692    0.0000    0.1752    0.1438   -0.2813   -0.0000   -0.0462
  Pz  N    4   -0.1927    0.0000   -0.5983    0.0000    0.0000    0.0000   -0.0155   -0.0000
  S   C    5   -0.0000   -0.2013    0.0000   -0.0394    0.1228    0.3086    0.0000   -0.4047
  Px  C    5   -0.0000   -0.2438    0.0000    0.4865   -0.0158    0.0023    0.0000   -0.0216
  Py  C    5   -0.0000   -0.2796    0.0000    0.1517    0.2246   -0.0295   -0.0000   -0.1817
  Pz  C    5    0.5246   -0.0000    0.4275   -0.0000   -0.0000   -0.0000    0.0440    0.0000
  S   C    6   -0.0000   -0.2198    0.0000   -0.0927    0.0351    0.0019   -0.0000   -0.1400
  Px  C    6    0.0000    0.5483   -0.0000    0.2502   -0.1635    0.2194    0.0000   -0.2462
  Py  C    6    0.0000    0.0119    0.0000    0.0946    0.3270    0.3647    0.0000    0.3427
  Pz  C    6   -0.0177    0.0000   -0.0019   -0.0000   -0.0000   -0.0000    0.6409   -0.0000
  S   H    7    0.0000    0.0461   -0.0000   -0.1560   -0.0501    0.0327    0.0000    0.2191
  S   H    8   -0.0000   -0.0686   -0.0000    0.0506   -0.0966   -0.0342   -0.0000    0.1167
  S   H    9    0.0000    0.0658   -0.0000    0.0313    0.1418   -0.3408   -0.0000    0.1702
  S   H   10    0.0924   -0.0002    0.0106   -0.0845   -0.1566   -0.2553   -0.5351    0.0052
  S   H   11   -0.0924   -0.0002   -0.0106   -0.0845   -0.1566   -0.2553    0.5351    0.0052
  S   H   12   -0.0000   -0.0023    0.0000    0.0758    0.4093    0.2793    0.0000    0.4597


   Root No.      25        26        27        28        29        30

                18 a'     19 a'     20 a'     21 a'     22 a'     23 a'  

                 5.119     5.257     5.587     5.810     5.984     6.346
  
  S   N    1    0.0132   -0.0026    0.0195   -0.0601    0.0403    0.0165
  Px  N    1   -0.0629   -0.1449   -0.1566    0.3079   -0.2311    0.0578
  Py  N    1    0.1656   -0.0618    0.2859    0.1237    0.1040    0.0201
  Pz  N    1    0.0000   -0.0000   -0.0000    0.0000   -0.0000    0.0000
  S   C    2   -0.3792   -0.2411   -0.4004   -0.0173    0.0198   -0.1094
  Px  C    2    0.2655    0.1865   -0.2478   -0.1342    0.0785   -0.0241
  Py  C    2    0.1880   -0.0068   -0.1437   -0.1949    0.4747   -0.0448
  Pz  C    2   -0.0000    0.0000    0.0000   -0.0000    0.0000   -0.0000
  S   C    3    0.3903    0.1637    0.0402    0.0027    0.1099   -0.3943
  Px  C    3    0.2887    0.1786    0.0415   -0.0210    0.2604    0.4551
  Py  C    3    0.1696    0.1632   -0.0948   -0.2986   -0.3762   -0.0233
  Pz  C    3   -0.0000   -0.0000   -0.0000    0.0000   -0.0000    0.0000
  S   N    4   -0.0813   -0.0283    0.0668   -0.0811   -0.0382   -0.0271
  Px  N    4   -0.2446   -0.1347    0.2104    0.0142    0.1583   -0.2693
  Py  N    4   -0.0455    0.0303   -0.1583   -0.3015   -0.3319    0.2383
  Pz  N    4    0.0000   -0.0000   -0.0000    0.0000   -0.0000    0.0000
  S   C    5    0.1631   -0.1348    0.0449   -0.1416   -0.1510    0.1829
  Px  C    5   -0.1209   -0.2072    0.3703    0.0521    0.1767   -0.1950
  Py  C    5    0.1165    0.1651   -0.1761    0.5132   -0.0200   -0.0092
  Pz  C    5   -0.0000    0.0000   -0.0000   -0.0000    0.0000    0.0000
  S   C    6   -0.2749    0.4819    0.1283   -0.1899    0.1286   -0.0374
  Px  C    6   -0.1664    0.1171   -0.0382    0.1216   -0.0853    0.0287
  Py  C    6   -0.1530    0.0272   -0.1154   -0.0496   -0.0392   -0.0061
  Pz  C    6   -0.0000    0.0000   -0.0000   -0.0000    0.0000   -0.0000
  S   H    7    0.0527    0.1565    0.5111    0.2104   -0.4075    0.1085
  S   H    8   -0.2062   -0.0813    0.0523    0.1288    0.3011    0.6305
  S   H    9    0.0036    0.3282   -0.2817    0.4773    0.0357   -0.0682
  S   H   10    0.2741   -0.3284   -0.0206    0.0843   -0.0277    0.0132
  S   H   11    0.2741   -0.3284   -0.0206    0.0843   -0.0277    0.0132
  S   H   12    0.0939   -0.2958   -0.1389    0.0191   -0.0697    0.0126

           SUPERDELOCALIZABILITIES

 Mulliken electronegativity:        4.263608
 Parr & Pople absolute hardness:    5.042162
 Schuurmann MO shift alpha:        -4.263608
 
 Ehomo:                            -9.305770
 Elumo:                             0.778553


  a   n        Dn(r)        De(r)   q(r) - Z(r)

  N   1    -0.407042    -0.425500    -5.081989
  C   2    -0.501657    -0.415324    -4.209833
  C   3    -0.479820    -0.409333    -4.097021
  N   4    -0.345489    -0.565959    -5.294158
  C   5    -0.529159    -0.378845    -4.032435
  C   6    -0.458151    -0.342748    -4.320744

 Total:    -2.721319    -2.537710

  a   n        piS(r)

  N   1    -0.172685
  C   2    -0.214158
  C   3    -0.211884
  N   4    -0.194559
  C   5    -0.208742
  C   6    -0.180575

 Total:    -1.182604

  a   n       homo-1         homo         lumo       lumo+1

  N   1    35.081050     7.152630    23.989386    28.113360
  C   2    12.142053    30.296326    32.452187    15.602976
  C   3     6.434992    31.524143    10.584556     0.607611
  N   4    36.949953     0.555238     3.712816     1.829372
  C   5     2.622194    29.589180    27.523293    17.817101
  C   6     2.786269     0.286408     0.031503    34.912143


              NET ATOMIC CHARGES AND DIPOLE CONTRIBUTIONS

  ATOM NO.   TYPE          CHARGE      No. of ELECS.   s-Pop       p-Pop       
    1          N          -0.081989        5.0820     1.44799     3.63400
    2          C          -0.209833        4.2098     1.11170     3.09813
    3          C          -0.097021        4.0970     1.10948     2.98754
    4          N          -0.294158        5.2942     1.73152     3.56264
    5          C          -0.032435        4.0324     1.12149     2.91095
    6          C          -0.320744        4.3207     1.08786     3.23288
    7          H           0.177245        0.8228     0.82276
    8          H           0.175989        0.8240     0.82401
    9          H           0.182575        0.8174     0.81743
   10          H           0.166599        0.8334     0.83340
   11          H           0.166599        0.8334     0.83340
   12          H           0.167174        0.8328     0.83283
 DIPOLE           X         Y         Z       TOTAL
 POINT-CHG.     3.788     0.811    -0.000     3.874
 HYBRID         0.974     0.484     0.000     1.087
 SUM            4.762     1.295    -0.000     4.935


          ATOMIC ORBITAL ELECTRON POPULATIONS

     Atom    s        px        py        pz   
    1  N   1.44799   1.04975   1.09473   1.48953
    2  C   1.11170   0.95867   0.97633   1.16313
    3  C   1.10948   1.00819   0.91943   1.05993
    4  N   1.73152   1.20008   1.15334   1.20922
    5  C   1.12149   0.87306   0.95768   1.08021
    6  C   1.08786   0.87100   1.18397   1.17791
    7  H   0.82276
    8  H   0.82401
    9  H   0.81743
   10  H   0.83340
   11  H   0.83340
   12  H   0.83283

          BONDING CONTRIBUTION OF EACH M.O.

  1.6147  1.6006  1.7833  1.8343  1.8973  1.8082  1.9281  1.6480  1.9519  2.0567
  2.0450  1.9988  1.7587  0.9109  1.4537  1.7445 -2.4075 -2.0140 -2.2557 -1.8810
 -1.8857 -1.9594 -1.9684 -1.9773 -2.0062 -1.9435 -1.9514 -1.9125 -1.9126 -1.9596





            (VALENCIES)   BOND ORDERS

     1  N     (3.548)     5  C 1.213     2  C 1.212     6  C 0.940     4  N 0.096     3  C 0.074
 
     2  C     (3.905)     3  C 1.534     1  N 1.212     7  H 0.952     5  C 0.132     4  N 0.035     6  C 0.016
 
     3  C     (3.947)     2  C 1.534     4  N 1.326     8  H 0.950     1  N 0.074     5  C 0.039     6  C 0.011
 
     4  N     (3.018)     5  C 1.531     3  C 1.326     1  N 0.096     2  C 0.035     6  C 0.020
 
     5  C     (3.909)     4  N 1.531     1  N 1.213     9  H 0.945     2  C 0.132     3  C 0.039     6  C 0.017
 
     6  C     (3.888)    12  H 0.963    10  H 0.960    11  H 0.960     1  N 0.940     4  N 0.020     5  C 0.017
                          2  C 0.016     3  C 0.011
 
     7  H     (0.969)     2  C 0.952
 
     8  H     (0.969)     3  C 0.950
 
     9  H     (0.967)     5  C 0.945
 
    10  H     (0.972)     6  C 0.960
 
    11  H     (0.972)     6  C 0.960
 
    12  H     (0.972)     6  C 0.963
 




 SELF-Q:    SELF OR INACTIVE CHARGE
 ACTIV-Q:   CHARGE WHICH IS USED TO FORM BONDS
 TOTAL-Q:   SELF-Q + ACTIV-Q
 FREE-VA:   TOTAL-Q - VALENCE
 STAT.PROM: TOTAL-Q - CORE CHARGE
 MULL.PROM: -CHARGE (SEE ABOVE)

       SELF-Q    ACTIV-Q   TOTAL-Q   VALENCE   FREE-VA STAT.PROM MULL.PROM


   1   1.53444   3.54755   5.08199   3.54755  -0.00000   0.08199   0.08199

   2   0.30512   3.90471   4.20983   3.90471  -0.00000   0.20983   0.20983

   3   0.15003   3.94699   4.09702   3.94699  -0.00000   0.09702   0.09702

   4   2.27630   3.01786   5.29416   3.01786   0.00000   0.29416   0.29416

   5   0.12373   3.90870   4.03243   3.90870  -0.00000   0.03243   0.03243

   6   0.43268   3.88807   4.32074   3.88807  -0.00000   0.32074   0.32074

   7  -0.14583   0.96858   0.82276   0.96858  -0.00000  -0.17724  -0.17724

   8  -0.14502   0.96903   0.82401   0.96903   0.00000  -0.17599  -0.17599

   9  -0.14924   0.96667   0.81743   0.96667  -0.00000  -0.18257  -0.18257

  10  -0.13884   0.97224   0.83340   0.97224  -0.00000  -0.16660  -0.16660

  11  -0.13884   0.97224   0.83340   0.97224  -0.00000  -0.16660  -0.16660

  12  -0.13923   0.97205   0.83283   0.97205  -0.00000  -0.16717  -0.16717

 CLOSED SHELL





          TOTAL ENERGY PARTITIONING

          ALL ENERGIES ARE IN ELECTRON VOLTS

            ONE-CENTER TERMS 
          E-E:  ELECTRON-ELECTRON REPULSION
          E-N:  ELECTRON-NUCLEAR ATTRACTION


   ATOM      E-E       E-N    (E-E + E-N)
   N   1   107.6020 -264.9831 -157.3811
   C   2    80.3632 -180.5294 -100.1661
   C   3    76.3172 -175.9991  -99.6819
   N   4   115.6214 -277.8064 -162.1850
   C   5    73.9969 -173.5536  -99.5567
   C   6    84.3657 -184.6931 -100.3274
   H   7     2.4452   -9.2535   -6.8083
   H   8     2.4526   -9.2676   -6.8150
   H   9     2.4136   -9.1935   -6.7800
   H  10     2.5089   -9.3732   -6.8644
   H  11     2.5089   -9.3732   -6.8644
   H  12     2.5054   -9.3668   -6.8614

              TWO-CENTER TERMS
           
          J:   RESONANCE ENERGY          E-E: ELECTRON-ELECTRON REPULSION
          K:   EXCHANGE ENERGY           E-N: ELECTRON-NUCLEAR ATTRACTION
                                         N-N: NUCLEAR-NUCLEAR REPULSION
          C:   COULOMBIC INTERACTION = E-E + E-N + N-N
          EE:  TOTAL OF ELECTRONIC AND NUCLEAR ENERGIES


     ATOM          J        K       E-E       E-N      N-N      C        EE
     PAIR
 
  C    2  N    1  -16.7738  -6.4398 165.5917 -326.4623 167.4346  6.5640 -16.6497
 
  C    3  N    1    0.3033  -0.2110 118.7071 -233.9337 115.7354  0.5089   0.6013
  C    3  C    2  -16.6400  -7.7214 136.3926 -267.3189 137.1510  6.2247 -18.1367
 
  N    4  N    1    0.3828  -0.2671 149.0224 -290.4635 141.9928  0.5518   0.6675
  N    4  C    2    0.2086  -0.0947 122.7212 -235.4611 113.3518  0.6120   0.7259
  N    4  C    3  -16.9914  -6.8488 167.0756 -328.4306 168.1148  6.7598 -17.0804
 
  C    5  N    1  -16.5120  -6.3671 159.0368 -319.6286 167.0011  6.4093 -16.4698
  C    5  C    2    0.5202  -0.3735  95.5562 -187.4808  92.3735  0.4489   0.5955
  C    5  C    3    0.1721  -0.1109  95.3723 -189.3053  94.4779  0.5448   0.6060
  C    5  N    4  -18.9581  -7.8346 167.0939 -331.3128 171.7064  7.4875 -19.3052
 
  C    6  N    1  -13.7705  -5.1214 166.0283 -322.4260 161.8818  5.4841 -13.4078
  C    6  C    2    0.2422  -0.0501  93.1937 -176.2191  83.4564  0.4311   0.6231
  C    6  C    3   -0.0219  -0.0259  66.1778 -126.5181  60.4319  0.0916   0.0438
  C    6  N    4   -0.0185  -0.0410  84.1137 -158.7241  74.8725  0.2621   0.2026
  C    6  C    5    0.2392  -0.0522  88.7693 -171.4055  82.8028  0.1665   0.3535

   ATOM          J        K       E-E       E-N      N-N      C        EE
   PAIR
  H    7  N    1    0.0682  -0.0044  24.6233  -54.2308  29.6711  0.0636   0.1274
  H    7  C    2  -12.1006  -5.3981  32.9818  -71.8636  43.9403  5.0586 -12.4401
  H    7  C    3    0.0631  -0.0038  19.5491  -42.9066  23.3637  0.0062   0.0654
  H    7  N    4   -0.0138  -0.0109  17.6558  -38.3493  20.5281 -0.1654  -0.1900
  H    7  C    5   -0.0245  -0.0199  13.7573  -30.4605  16.6995 -0.0037  -0.0481
  H    7  C    6   -0.0005  -0.0001  16.7489  -35.9328  18.9344 -0.2495  -0.2500

   ATOM          J        K       E-E       E-N      N-N      C        EE
   PAIR
  H    8  N    1   -0.0143  -0.0121  17.4090  -38.2775  20.8129 -0.0556  -0.0820
  H    8  C    2    0.0878  -0.0082  20.2768  -43.8774  23.4842 -0.1163  -0.0368
  H    8  C    3  -12.0056  -5.3753  32.1173  -70.7257  43.7798  5.1715 -12.2095
  H    8  N    4    0.0493  -0.0028  25.8727  -55.9825  29.9832 -0.1266  -0.0801
  H    8  C    5   -0.0274  -0.0207  14.0613  -31.0814  17.0109 -0.0092  -0.0573
  H    8  C    6    0.0005  -0.0016  10.6562  -22.8426  12.0272 -0.1593  -0.1603
  H    8  H    7   -0.0058  -0.0003   3.3222   -8.0695   4.9019  0.1546   0.1485

   ATOM          J        K       E-E       E-N      N-N      C        EE
   PAIR
  H    9  N    1    0.1148  -0.0109  24.3880  -53.8567  29.5119  0.0431   0.1469
  H    9  C    2   -0.0235  -0.0183  14.2310  -31.0318  16.6650 -0.1358  -0.1776
  H    9  C    3   -0.0262  -0.0189  14.0579  -31.0000  16.8852 -0.0569  -0.1020
  H    9  N    4    0.0728  -0.0052  25.5132  -55.4915  29.8442 -0.1341  -0.0665
  H    9  C    5  -12.0309  -5.3466  31.3852  -69.8675  43.7315  5.2492 -12.1283
  H    9  C    6   -0.0037  -0.0003  16.4015  -35.3200  18.6648 -0.2536  -0.2576
  H    9  H    7    0.0002  -0.0001   2.2023   -5.3709   3.2746  0.1060   0.1061
  H    9  H    8    0.0001  -0.0000   2.2325   -5.4404   3.3144  0.1065   0.1066

   ATOM          J        K       E-E       E-N      N-N      C        EE
   PAIR
  H   10  N    1    0.0366  -0.0025  25.5080  -55.7549  30.3434  0.0966   0.1306
  H   10  C    2    0.0108  -0.0060  16.3968  -35.3235  18.7800 -0.1467  -0.1419
  H   10  C    3   -0.0004  -0.0019  11.6098  -25.3026  13.6453 -0.0475  -0.0498
  H   10  N    4    0.0001  -0.0019  14.2312  -30.6571  16.2959 -0.1300  -0.1318
  H   10  C    5   -0.0105  -0.0132  13.9768  -30.6933  16.7058 -0.0107  -0.0345
  H   10  C    6  -11.1932  -5.3247  33.6389  -72.0074  42.8180  4.4495 -12.0684
  H   10  H    7   -0.0022  -0.0001   3.1725   -7.6627   4.6273  0.1372   0.1349
  H   10  H    8    0.0000  -0.0000   1.9261   -4.6486   2.8048  0.0822   0.0822
  H   10  H    9    0.0001  -0.0000   2.5830   -6.2593   3.7916  0.1153   0.1154

   ATOM          J        K       E-E       E-N      N-N      C        EE
   PAIR
  H   11  N    1    0.0366  -0.0025  25.5080  -55.7549  30.3434  0.0966   0.1306
  H   11  C    2    0.0108  -0.0060  16.3968  -35.3235  18.7800 -0.1467  -0.1419
  H   11  C    3   -0.0004  -0.0019  11.6098  -25.3026  13.6453 -0.0475  -0.0498
  H   11  N    4    0.0001  -0.0019  14.2312  -30.6571  16.2959 -0.1300  -0.1318
  H   11  C    5   -0.0105  -0.0132  13.9768  -30.6933  16.7058 -0.0107  -0.0345
  H   11  C    6  -11.1932  -5.3247  33.6389  -72.0074  42.8180  4.4495 -12.0684
  H   11  H    7   -0.0022  -0.0001   3.1725   -7.6627   4.6273  0.1372   0.1349
  H   11  H    8    0.0000  -0.0000   1.9261   -4.6486   2.8048  0.0822   0.0822
  H   11  H    9    0.0001  -0.0000   2.5830   -6.2593   3.7916  0.1153   0.1154
  H   11  H   10   -0.0348  -0.0006   4.8797  -11.7104   7.1063  0.2756   0.2402

   ATOM          J        K       E-E       E-N      N-N      C        EE
   PAIR
  H   12  N    1    0.0128  -0.0007  25.4862  -55.7307  30.3412  0.0967   0.1087
  H   12  C    2   -0.0178  -0.0158  13.9430  -30.0764  16.0114 -0.1221  -0.1556
  H   12  C    3    0.0002  -0.0002  10.9707  -23.9257  12.9113 -0.0437  -0.0437
  H   12  N    4   -0.0002  -0.0001  15.1217  -32.5747  17.3115 -0.1415  -0.1418
  H   12  C    5    0.0176  -0.0020  16.6360  -36.5001  19.8501 -0.0139   0.0017
  H   12  C    6  -11.2292  -5.3442  33.6390  -72.0436  42.8795  4.4749 -12.0985
  H   12  H    7   -0.0001  -0.0000   2.4433   -5.9033   3.5657  0.1057   0.1055
  H   12  H    8   -0.0000  -0.0001   1.7982   -4.3415   2.6204  0.0771   0.0770
  H   12  H    9   -0.0111  -0.0008   3.5081   -8.5039   5.1570  0.1612   0.1494
  H   12  H   10   -0.0525  -0.0014   4.8863  -11.7302   7.1217  0.2778   0.2239
  H   12  H   11   -0.0525  -0.0014   4.8863  -11.7302   7.1217  0.2778   0.2239
 

                    Total contribution from hydrogen bonds:         0.000 disp.:    0.000 Tot:     0.000 kcal/mol




***  SUMMARY OF ENERGY PARTITION  ***
 ---------------------------------------
     ONE-CENTER TERMS

 ELECTRON-NUCLEAR  (ONE-ELECTRON)        -1313.3925 EV
 ELECTRON-ELECTRON (TWO-ELECTRON)          553.1009 EV

 TOTAL OF ONE-CENTER TERMS                -760.2915 EV
 ---------------------------------------
     TWO-CENTER TERMS

 RESONANCE ENERGY                         -167.1234 EV
 EXCHANGE ENERGY                           -73.8863 EV

 EXCHANGE + RESONANCE ENERGY:             -241.0096 EV

 ELECTRON-ELECTRON REPULSION              2638.5808 EV
 ELECTRON-NUCLEAR ATTRACTION             -5338.4588 EV
 NUCLEAR-NUCLEAR REPULSION                2771.4356 EV

 TOTAL ELECTROSTATIC INTERACTION            71.5575 EV

 GRAND TOTAL OF TWO-CENTER TERMS          -169.4521 EV
 ---------------------------------------
 ETOT (EONE + ETWO)                       -929.7437 EV


 ******************** TDHF POLARIZABILITIES ********************



          MOLECULAR WEIGHT =   82.10



          ROTATIONAL CONSTANTS IN CM(-1)

          A =    0.29343136   B =    0.11679089   C =    0.08490056



           PRINCIPAL MOMENTS OF INERTIA IN UNITS OF 10**(-40)*GRAM-CM**2

          A =       95.3980   B =      239.6827   C =      329.7122


 ROTATION MATRIX FOR ORIENTATION OF MOLECULE:

         0.999480   -0.032231   -0.000000
         0.032231    0.999480    0.000000
         0.000000   -0.000000    1.000000


          CARTESIAN COORDINATES 

    NO.       ATOM         X         Y         Z

     1         N        0.6862    0.0008   -0.0000
     2         C       -0.1161    1.1491   -0.0000
     3         C       -1.4378    0.6906    0.0000
     4         N       -1.4630   -0.7026    0.0000
     5         C       -0.1717   -1.1127   -0.0000
     6         C        2.1506   -0.0119    0.0000
     7         H        0.2739    2.1462   -0.0000
     8         H       -2.3466    1.2658    0.0000
     9         H        0.1661   -2.1355   -0.0000
    10         H        2.5500    0.4999    0.8955
    11         H        2.5500    0.4999   -0.8955
    12         H        2.5383   -1.0456   -0.0000


 ENERGY OF "REORIENTED" SYSTEM WITHOUT FIELD:       32.8384669377


  NFREQ=  3  IWFLB=  0  IBET=  1  IGAM=  1
  ATOL= 0.10000D-02  BTOL= 0.10000D-02    MAXITU=  500    MAXITA=  150


 *****************************************************************
 CALCULATION OF STATIC FIELD QUANTITIES
 *****************************************************************

 +++++ ALPHA AT       0.00000 EV.

                           COMPONENTS OF ALPHA

                     *X           *Y           *Z
           *=X:      76.2627       0.2278       0.0007
           *=Y:       0.2268      69.5367       0.0009
           *=Z:      -0.0000      -0.0000      41.0838

  ISOTROPIC AVERAGE ALPHA =      62.29438 A.U. =      9.23107 ANG.**3

 +++++ BETA (SECOND HARMONIC GENERATION) AT       0.00000 EV.

                              COMPONENTS OF BETA
            *XX         *XY         *YY         *XZ         *YZ         *ZZ
   *=X   -86.66054   -60.00608   -43.07667    -0.01130    -0.01589   -32.73405
   *=Y   -59.97880   -43.13041    56.24433    -0.01589     0.01455   -10.50034
   *=Z     0.00000     0.00000     0.00000   -32.73813   -10.49752     0.00157


 AVERAGE BETAX(SHG) VALUE AT   0.00000 EV =        -97.5059 a.u. = -0.842394E-30 ESU
 AVERAGE BETAY(SHG) VALUE AT   0.00000 EV =         -8.5507 a.u. = -0.738728E-31 ESU
 AVERAGE BETAZ(SHG) VALUE AT   0.00000 EV =          0.0022 a.u. =  0.193618E-34 ESU



 AVERAGE BETA (SHG) VALUE AT   0.00000 EV =         97.8801 a.u. =  0.845627E-30 ESU
   (1 a.u. = 8.639418X10-33 esu)



 +++++ ALPHA AT       0.00000 EV.

                           COMPONENTS OF ALPHA

                     *X           *Y           *Z
           *=X:      76.2633       0.2278       0.0007
           *=Y:       0.2273      69.5367       0.0009
           *=Z:      -0.0000      -0.0000      41.0838

  ISOTROPIC AVERAGE ALPHA =      62.29459 A.U. =      9.23111 ANG.**3


 GAMMA (THIRD HARMONIC GENERATION) AT    0.00000 EV.


 GAMMA(X,X,X,X) =          6729.02057
 GAMMA(Y,Y,Y,Y) =          4762.64867
 GAMMA(Z,Z,Z,Z) =            -6.07447
 GAMMA(X,X,Y,Y) =          -433.38877
 GAMMA(X,X,Z,Z) =           682.21410
 GAMMA(Y,Y,X,X) =          -433.21209
 GAMMA(Y,Y,Z,Z) =           436.50899
 GAMMA(Z,Z,X,X) =           682.20624
 GAMMA(Z,Z,Y,Y) =           436.48905


 AVERAGE GAMMA VALUE AT    0.00000 =          2571.28246 a.u. =         1295.07850 ESU (X10-39)




 **********************************************************************
 CALCULATION FOR A FREQUENCY OF    0.25000 EV  =       0.00919 A.U. 
                  WAVELENGTH OF    4959.37 NM  =    2016.38525 CM(-1)
 **********************************************************************

 +++++ ALPHA AT       0.25000 EV.

                           COMPONENTS OF ALPHA

                     *X           *Y           *Z
           *=X:      76.3198       0.2373       0.0007
           *=Y:       0.2370      69.5853       0.0009
           *=Z:       0.0000       0.0000      41.0940

  ISOTROPIC AVERAGE ALPHA =      62.33301 A.U. =      9.23680 ANG.**3

 +++++ BETA (SECOND HARMONIC GENERATION) AT       0.25000 EV.

                              COMPONENTS OF BETA
            *XX         *XY         *YY         *XZ         *YZ         *ZZ
   *=X   -87.05672   -60.93771   -43.24462    -0.00510    -0.01551   -32.86955
   *=Y   -60.83178   -44.07234    57.33378    -0.01515     0.00664   -10.49729
   *=Z     0.00075     0.00065     0.00000   -33.00184   -10.54494     0.00184


 AVERAGE BETAX(SHG) VALUE AT   0.25000 EV =        -98.2865 a.u. = -0.849139E-30 ESU
 AVERAGE BETAY(SHG) VALUE AT   0.25000 EV =         -8.4586 a.u. = -0.730774E-31 ESU
 AVERAGE BETAZ(SHG) VALUE AT   0.25000 EV =          0.0019 a.u. =  0.161492E-34 ESU



 AVERAGE BETA (SHG) VALUE AT   0.25000 EV =         98.6498 a.u. =  0.852277E-30 ESU
   (1 a.u. = 8.639418X10-33 esu)



 +++++ ALPHA AT       0.75000 EV.

                           COMPONENTS OF ALPHA

                     *X           *Y           *Z
           *=X:      76.7826       0.3206       0.0009
           *=Y:       0.3203      69.9860       0.0014
           *=Z:      -0.0000       0.0000      41.1734

  ISOTROPIC AVERAGE ALPHA =      62.64732 A.U. =      9.28338 ANG.**3


 GAMMA (THIRD HARMONIC GENERATION) AT    0.25000 EV.


 GAMMA(X,X,X,X) =          6851.79540
 GAMMA(Y,Y,Y,Y) =          4941.34709
 GAMMA(Z,Z,Z,Z) =            -5.68620
 GAMMA(X,X,Y,Y) =          -450.29682
 GAMMA(X,X,Z,Z) =           702.71463
 GAMMA(Y,Y,X,X) =          -459.10229
 GAMMA(Y,Y,Z,Z) =           452.97297
 GAMMA(Z,Z,X,X) =           696.85124
 GAMMA(Z,Z,Y,Y) =           442.28990


 AVERAGE GAMMA VALUE AT    0.25000 =          2634.57718 a.u. =         1326.95817 ESU (X10-39)




 **********************************************************************
 CALCULATION FOR A FREQUENCY OF    0.50000 EV  =       0.01837 A.U. 
                  WAVELENGTH OF    2479.68 NM  =    4032.77050 CM(-1)
 **********************************************************************

 +++++ ALPHA AT       0.50000 EV.

                           COMPONENTS OF ALPHA

                     *X           *Y           *Z
           *=X:      76.4917       0.2679       0.0008
           *=Y:       0.2674      69.7340       0.0011
           *=Z:       0.0000       0.0000      41.1236

  ISOTROPIC AVERAGE ALPHA =      62.44975 A.U. =      9.25410 ANG.**3

 +++++ BETA (SECOND HARMONIC GENERATION) AT       0.50000 EV.

                              COMPONENTS OF BETA
            *XX         *XY         *YY         *XZ         *YZ         *ZZ
   *=X   -88.26064   -63.90479   -43.79882    -0.00251    -0.01674   -33.26595
   *=Y   -63.48987   -47.15371    60.81681    -0.01695     0.00345   -10.48207
   *=Z     0.00057     0.00054     0.00000   -33.81318   -10.69038     0.00225


 AVERAGE BETAX(SHG) VALUE AT   0.50000 EV =       -100.7561 a.u. = -0.870474E-30 ESU
 AVERAGE BETAY(SHG) VALUE AT   0.50000 EV =         -8.1424 a.u. = -0.703453E-31 ESU
 AVERAGE BETAZ(SHG) VALUE AT   0.50000 EV =          0.0018 a.u. =  0.158659E-34 ESU



 AVERAGE BETA (SHG) VALUE AT   0.50000 EV =        101.0846 a.u. =  0.873312E-30 ESU
   (1 a.u. = 8.639418X10-33 esu)



 +++++ ALPHA AT       1.50000 EV.

                           COMPONENTS OF ALPHA

                     *X           *Y           *Z
           *=X:      78.4566       0.6585       0.0013
           *=Y:       0.6581      71.4615       0.0018
           *=Z:      -0.0000       0.0000      41.4525

  ISOTROPIC AVERAGE ALPHA =      63.79019 A.U. =      9.45273 ANG.**3


 GAMMA (THIRD HARMONIC GENERATION) AT    0.50000 EV.


 GAMMA(X,X,X,X) =          7245.77943
 GAMMA(Y,Y,Y,Y) =          5547.77946
 GAMMA(Z,Z,Z,Z) =            -4.40734
 GAMMA(X,X,Y,Y) =          -511.19527
 GAMMA(X,X,Z,Z) =           771.30582
 GAMMA(Y,Y,X,X) =          -554.85274
 GAMMA(Y,Y,Z,Z) =           510.22756
 GAMMA(Z,Z,X,X) =           744.27641
 GAMMA(Z,Z,Y,Y) =           460.01433


 AVERAGE GAMMA VALUE AT    0.50000 =          2841.78553 a.u. =         1431.32285 ESU (X10-39)


 ******************** FINITE-FIELD POLARIZABILITIES ********************

    THE F-F METHOD IS PERFORMED USING BOTH AN ENERGY
    AND DIPOLE MOMENT EXPANSION.  THESE RESULTS ARE
    LISTED BELOW AS "H.o.F." AND "Dipole", RESPECTIVELY.

          MOLECULAR WEIGHT =   82.10



          ROTATIONAL CONSTANTS IN CM(-1)

          A =    0.29343136   B =    0.11679089   C =    0.08490056



           PRINCIPAL MOMENTS OF INERTIA IN UNITS OF 10**(-40)*GRAM-CM**2

          A =       95.3980   B =      239.6827   C =      329.7122


 ROTATION MATRIX FOR ORIENTATION OF MOLECULE:

         0.999480   -0.032231   -0.000000
         0.032231    0.999480    0.000000
         0.000000   -0.000000    1.000000


          CARTESIAN COORDINATES 

    NO.       ATOM         X         Y         Z

     1         N        0.6862    0.0008   -0.0000
     2         C       -0.1161    1.1491   -0.0000
     3         C       -1.4378    0.6906    0.0000
     4         N       -1.4630   -0.7026    0.0000
     5         C       -0.1717   -1.1127   -0.0000
     6         C        2.1506   -0.0119    0.0000
     7         H        0.2739    2.1462   -0.0000
     8         H       -2.3466    1.2658    0.0000
     9         H        0.1661   -2.1355   -0.0000
    10         H        2.5500    0.4999    0.8955
    11         H        2.5500    0.4999   -0.8955
    12         H        2.5383   -1.0456   -0.0000


 ENERGY OF "REORIENTED" SYSTEM WITHOUT FIELD:       32.83847 Kcal/mol


 APPLIED ELECTRIC FIELD MAGNITUDE:         0.10284 VOLTS PER ANGSTROM
    Step  1 of 36 done (+X)
    Step  2 of 36 done (-X)
    Step  3 of 36 done (+2X)
    Step  4 of 36 done (-2X)
    Step  5 of 36 done (+Y)
    Step  6 of 36 done (-Y)
    Step  7 of 36 done (+2Y)
    Step  8 of 36 done (-2Y)
    Step  9 of 36 done (+Y+X)
    Step 10 of 36 done (+Y-X)
    Step 11 of 36 done (-Y-X)
    Step 12 of 36 done (-Y+X)
    Step 13 of 36 done (+2Y+2X)
    Step 14 of 36 done (+2Y-2X)
    Step 15 of 36 done (-2Y-2X)
    Step 16 of 36 done (-2Y+2X)
    Step 17 of 36 done (+Z)
    Step 18 of 36 done (-Z)
    Step 19 of 36 done (+2Z)
    Step 20 of 36 done (-2Z)
    Step 21 of 36 done (+Z+X)
    Step 22 of 36 done (+Z-X)
    Step 23 of 36 done (-Z-X)
    Step 24 of 36 done (-Z+X)
    Step 25 of 36 done (+2Z+2X)
    Step 26 of 36 done (+2Z-2X)
    Step 27 of 36 done (-2Z-2X)
    Step 28 of 36 done (-2Z+2X)
    Step 29 of 36 done (+Z+Y)
    Step 30 of 36 done (+Z-Y)
    Step 31 of 36 done (-Z-Y)
    Step 32 of 36 done (-Z+Y)
    Step 33 of 36 done (+2Z+2Y)
    Step 34 of 36 done (+2Z-2Y)
    Step 35 of 36 done (-2Z-2Y)
    Step 36 of 36 done (-2Z+2Y)


 ****************************** DIPOLE ******************************


                     H.o.F.         Dipole

     X             -1.888871      -1.888808
     Y             -0.448839      -0.448828
     X              0.000000       0.000048


 MAGNITUDE:         1.941466       1.941402  (A.U.)
                    4.934714       4.934552  (DEBYE)


 ****************************** POLARIZABILITY ********************



 Polarizability Tensor from Heat of Formation:


                     1          2          3
 ------------------------------------------
          1  76.264316
          2   0.228453  69.537635
          3  -0.000057  -0.000067  41.084529




    ROOT NO.    1           2           3

            41.08453    69.52989    76.27207
  
         1   0.00000    -0.03390    -0.99943
         2   0.00000     0.99943    -0.03390
         3   1.00000    -0.00000     0.00000

 Polarizability Tensor from Dipole Moment:


                     1          2          3
 ------------------------------------------
          1  76.262327
          2   0.228846  69.534154
          3  -0.001870  -0.000889  41.071494




    ROOT NO.    1           2           3

            41.07149    69.52638    76.27010
  
         1   0.00005    -0.03395    -0.99942
         2   0.00003     0.99942    -0.03395
         3   1.00000    -0.00003     0.00005


 Average Polarizability from:     H.o.F         Dipole
                               62.295493      62.289325  A.U.
                                9.230946       9.230032  ANG.**3
                            1.846139D-23   1.845957D-23  ESU
 *******************************************************************************
 **                                                                           **
 **                              MOPAC v22.1.1                                **
 **                                                                           **
 *******************************************************************************
 **          Digital Object Identifier (DOI): 10.5281/zenodo.6511958          **
 **    Visit the DOI location for information on how to cite this program.    **
 *******************************************************************************

                              PM6 CALCULATION RESULTS

 *******************************************************************************
 *  CALCULATION DONE:                                Mon Apr 22 11:30:27 2024  *
 *  PM6        - The PM6 Hamiltonian to be used
 *  OLDGEO     - PREVIOUS GEOMETRY TO BE USED
 *  FORCE      - FORCE CALCULATION SPECIFIED
 *  T=         - A TIME OF 172800.0 SECONDS REQUESTED
 *  DUMP=N     - RESTART FILE WRITTEN EVERY 7200.0 SECONDS REQUESTED
 *  THERMO     - THERMODYNAMIC QUANTITIES TO BE CALCULATED
 *******************************************************************************
PM6 OLDGEO FORCE THERMO
 mi
 All coordinates are Cartesian
   ATOM   CHEMICAL          X               Y               Z
  NUMBER   SYMBOL      (ANGSTROMS)     (ANGSTROMS)     (ANGSTROMS)
 
     1       N          0.23785782  *  -0.10286542  *  -0.00000000  *
     2       C         -0.56444883  *   1.04546656  *   0.00000000  *
     3       C         -1.88606581  *   0.58688785  *   0.00000000  *
     4       N         -1.91131795  *  -0.80623703  *   0.00000000  *
     5       C         -0.62004135  *  -1.21635643  *   0.00000000  *
     6       C          1.70224998  *  -0.11556071  *   0.00000000  *
     7       H         -0.17442903  *   2.04251700  *   0.00000000  *
     8       H         -2.79490143  *   1.16215376  *   0.00000000  *
     9       H         -0.28223719  *  -2.23911759  *  -0.00000000  *
    10       H          2.10165498  *   0.39619549  *   0.89548556  *
    11       H          2.10165498  *   0.39619549  *  -0.89548556  *
    12       H          2.09002383  *  -1.14927898  *  -0.00000000  *
 


          CARTESIAN COORDINATES 

    NO.       ATOM           X           Y           Z

     1         N          0.2379     -0.1029     -0.0000
     2         C         -0.5644      1.0455      0.0000
     3         C         -1.8861      0.5869      0.0000
     4         N         -1.9113     -0.8062      0.0000
     5         C         -0.6200     -1.2164      0.0000
     6         C          1.7022     -0.1156      0.0000
     7         H         -0.1744      2.0425      0.0000
     8         H         -2.7949      1.1622      0.0000
     9         H         -0.2822     -2.2391     -0.0000
    10         H          2.1017      0.3962      0.8955
    11         H          2.1017      0.3962     -0.8955
    12         H          2.0900     -1.1493     -0.0000

 General Reference for PM6:
 "Optimization of Parameters for Semiempirical Methods V: Modification of NDDO Approximations
 and Application to 70 Elements", J. J. P. Stewart, J. Mol. Mod., 13, 1173-1213 (2007)
 URL: https://link.springer.com/article/10.1007/s00894-007-0233-4

           Empirical Formula: C4 H6 N2  =    12 atoms



      MOLECULAR POINT GROUP   :   Cs  


      RHF CALCULATION, NO. OF DOUBLY OCCUPIED LEVELS = 16



          HEAT OF FORMATION =      32.838467 KCALS/MOLE


          CARTESIAN COORDINATE DERIVATIVES

   NUMBER  ATOM         X            Y            Z

     1       N      0.001295     0.002373    -0.000000
     2       C     -0.003861     0.001457    -0.000000
     3       C     -0.001466     0.001150     0.000000
     4       N     -0.000285    -0.001644     0.000000
     5       C      0.002402    -0.002165    -0.000000
     6       C      0.001470    -0.000401     0.000002
     7       H      0.002223     0.001234     0.000000
     8       H     -0.001718    -0.000987     0.000000
     9       H      0.002822     0.000523    -0.000000
    10       H     -0.000922    -0.001316    -0.000128
    11       H     -0.000921    -0.001317     0.000127
    12       H     -0.001038     0.001093    -0.000000
 


          GRADIENT NORM =   0.00833

          MOLECULAR WEIGHT =   82.10



          ROTATIONAL CONSTANTS IN CM(-1)

          A =    0.29343136   B =    0.11679089   C =    0.08490056



           PRINCIPAL MOMENTS OF INERTIA IN UNITS OF 10**(-40)*GRAM-CM**2

          A =       95.3980   B =      239.6827   C =      329.7122


          ORIENTATION OF MOLECULE IN FORCE CALCULATION

    NO.       ATOM         X         Y         Z

     1          N      -0.3923   -0.5629    0.0000
     2          C       1.0085   -0.5629    0.0000
     3          C       1.3895    0.7831    0.0000
     4          N       0.2620    1.6017    0.0000
     5          C      -0.8138    0.7780    0.0000
     6          C      -1.2414   -1.7561    0.0000
     7          H       1.6025   -1.4537    0.0000
     8          H       2.3816    1.1986    0.0000
     9          H      -1.8456    1.0869    0.0000
    10          H      -1.0507   -2.3766    0.8955
    11          H      -1.0507   -2.3766   -0.8955
    12          H      -2.3109   -1.4819    0.0000


    FIRST DERIVATIVES WILL BE USED IN THE CALCULATION OF SECOND DERIVATIVES

          ESTIMATED TIME TO COMPLETE CALCULATION =        0.56 SECONDS

    FOR POINT-GROUP Cs   THERE ARE   2 UNIQUE SYMMETRY FUNCTIONS.

 STEP:   1 TIME =     0.01 SECS, INTEGRAL =      0.01 TIME LEFT: 172799.98
 STEP:   2 TIME =     0.01 SECS, INTEGRAL =      0.02 TIME LEFT: 172799.98
 STEP:   3 TIME =     0.01 SECS, INTEGRAL =      0.02 TIME LEFT: 172799.97
 STEP:   4 TIME =     0.01 SECS, INTEGRAL =      0.03 TIME LEFT: 172799.96
 STEP:   5 TIME =     0.01 SECS, INTEGRAL =      0.04 TIME LEFT: 172799.95
 STEP:   6 TIME =     0.01 SECS, INTEGRAL =      0.05 TIME LEFT: 172799.94
 STEP:   7 TIME =     0.01 SECS, INTEGRAL =      0.06 TIME LEFT: 172799.93
 STEP:   8 TIME =     0.01 SECS, INTEGRAL =      0.07 TIME LEFT: 172799.93
 STEP:   9 TIME =     0.01 SECS, INTEGRAL =      0.07 TIME LEFT: 172799.92
 STEP:  10 TIME =     0.01 SECS, INTEGRAL =      0.08 TIME LEFT: 172799.91
 STEP:  11 TIME =     0.01 SECS, INTEGRAL =      0.09 TIME LEFT: 172799.90
 STEP:  12 TIME =     0.01 SECS, INTEGRAL =      0.10 TIME LEFT: 172799.89
 STEP:  13 TIME =     0.01 SECS, INTEGRAL =      0.11 TIME LEFT: 172799.89
 STEP:  14 TIME =     0.01 SECS, INTEGRAL =      0.11 TIME LEFT: 172799.88
 STEP:  15 TIME =     0.01 SECS, INTEGRAL =      0.12 TIME LEFT: 172799.87
 STEP:  16 TIME =     0.01 SECS, INTEGRAL =      0.13 TIME LEFT: 172799.86
 STEP:  17 TIME =     0.01 SECS, INTEGRAL =      0.14 TIME LEFT: 172799.86
 STEP:  18 TIME =     0.01 SECS, INTEGRAL =      0.14 TIME LEFT: 172799.85
 STEP:  19 TIME =     0.01 SECS, INTEGRAL =      0.15 TIME LEFT: 172799.84
 STEP:  20 TIME =     0.01 SECS, INTEGRAL =      0.16 TIME LEFT: 172799.83
 STEP:  21 TIME =     0.01 SECS, INTEGRAL =      0.17 TIME LEFT: 172799.82
 STEP:  22 TIME =     0.01 SECS, INTEGRAL =      0.18 TIME LEFT: 172799.82
 STEP:  23 TIME =     0.00 SECS, INTEGRAL =      0.18 TIME LEFT: 172799.81
 STEP:  24 TIME =     0.01 SECS, INTEGRAL =      0.19 TIME LEFT: 172799.80
 STEP:  25 TIME =     0.01 SECS, INTEGRAL =      0.20 TIME LEFT: 172799.80
 STEP:  26 TIME =     0.03 SECS, INTEGRAL =      0.23 TIME LEFT: 172799.77
 STEP:  27 TIME =     0.01 SECS, INTEGRAL =      0.24 TIME LEFT: 172799.75
 STEP:  28 TIME =     0.01 SECS, INTEGRAL =      0.25 TIME LEFT: 172799.75
 STEP:  29 TIME =     0.01 SECS, INTEGRAL =      0.25 TIME LEFT: 172799.74
 STEP:  30 TIME =     0.00 SECS, INTEGRAL =      0.26 TIME LEFT: 172799.73
 STEP:  31                       INTEGRAL =      0.26 TIME LEFT: 172799.73
 STEP:  32                       INTEGRAL =      0.26 TIME LEFT: 172799.73
 STEP:  33                       INTEGRAL =      0.26 TIME LEFT: 172799.73
 STEP:  34 TIME =     0.01 SECS, INTEGRAL =      0.27 TIME LEFT: 172799.73
 STEP:  35 TIME =     0.01 SECS, INTEGRAL =      0.27 TIME LEFT: 172799.72
 STEP:  36 TIME =     0.01 SECS, INTEGRAL =      0.29 TIME LEFT: 172799.71

(To convert to Hartree/Bohr^2, multiply by (10^(-21) x N x a0^2)/(4.184 x 627.51) =  0.0642)


           FORCE MATRIX IN MILLIDYNES/ANGSTROM


                  N  1       C  2       C  3       N  4       C  5       C  6
 ------------------------------------------------------------------------------
     N    1  16.779514
     C    2   5.197216  14.521895
     C    3   1.872870   5.912684  14.284247
     N    4   2.269608   2.077529   5.333030  12.462250
     C    5   4.795056   1.375200   2.062701   6.359935  14.264766
     C    6   4.675978   0.523869   0.101678   0.185811   0.417847  11.606101
     H    7   0.741036   3.585232   0.563742   0.094219   0.094931   0.017719
     H    8   0.077590   0.598688   3.555719   0.715373   0.127566   0.022348
     H    9   0.707683   0.098632   0.124787   0.711972   3.478153   0.022184
     H   10   0.750826   0.041067   0.010672   0.030645   0.057651   3.366782
     H   11   0.749126   0.041681   0.010425   0.030906   0.059069   3.366875
     H   12   0.767717   0.065352   0.025328   0.032388   0.071094   3.404214


                  H  7       H  8       H  9       H 10       H 11       H 12
 ------------------------------------------------------------------------------
     H    7   4.410431
     H    8   0.020200   4.391836
     H    9   0.015568   0.013625   4.364537
     H   10   0.008403   0.003687   0.004664   4.150125
     H   11   0.008316   0.003757   0.004660   0.428296   4.150125
     H   12   0.002011   0.003347   0.012323   0.424983   0.425119   4.185720


          HEAT OF FORMATION =      32.838467 KCALS/MOLE

          ZERO POINT ENERGY      56.684 KCAL/MOL


           NORMAL COORDINATE ANALYSIS (Total motion = 1 Angstrom)


   Root No.       1         2         3         4         5         6         7         8

                 1 A"      2 A"      1 A'      3 A"      4 A"      2 A'      3 A'      5 A"  

                  23.4     177.1     348.0     476.3     561.1     676.8     823.8     828.5
  
           1   -0.0000    0.0000   -0.0494   -0.0000   -0.0000    0.0343    0.0436   -0.0000
           2    0.0000   -0.0000    0.0346   -0.0000   -0.0000    0.0492   -0.0313    0.0000
           3    0.0095    0.1022    0.0000    0.1012    0.0095    0.0000    0.0000    0.0160
           4   -0.0000    0.0000   -0.0508    0.0000   -0.0000    0.0222   -0.0054    0.0000
           5   -0.0000   -0.0000   -0.0090    0.0000   -0.0000   -0.0590   -0.0909    0.0000
           6    0.0206    0.0349   -0.0000   -0.0887    0.0344   -0.0000   -0.0000   -0.0613
           7    0.0000    0.0000    0.0015   -0.0000    0.0000   -0.0318   -0.1332    0.0000
           8   -0.0000    0.0000   -0.0289   -0.0000    0.0000   -0.0582   -0.0318    0.0000
           9    0.0077   -0.0472   -0.0000    0.0385   -0.0849   -0.0000   -0.0000   -0.0189
          10    0.0000   -0.0000    0.0284    0.0000   -0.0000   -0.0392   -0.0069    0.0000
          11    0.0000    0.0000    0.0088   -0.0000   -0.0000   -0.0439    0.1435   -0.0000
          12   -0.0147   -0.0420    0.0000    0.0194    0.1159   -0.0000    0.0000    0.0165
          13   -0.0000   -0.0000   -0.0074    0.0000    0.0000   -0.0583    0.0800   -0.0000
          14    0.0000   -0.0000    0.0505    0.0000    0.0000    0.0020    0.0270   -0.0000
          15   -0.0162    0.0356    0.0000   -0.0770   -0.0664   -0.0000   -0.0000   -0.0316
          16    0.0000   -0.0000    0.0605    0.0000   -0.0000    0.0699    0.0121   -0.0000
          17   -0.0000    0.0000   -0.0441   -0.0000   -0.0000    0.0995   -0.0105    0.0000
          18   -0.0056   -0.0673   -0.0000    0.0129    0.0011    0.0000    0.0000    0.0022
          19   -0.0000    0.0000   -0.0858    0.0000   -0.0000   -0.0330    0.0853   -0.0000
          20   -0.0000    0.0000   -0.0333    0.0000   -0.0000   -0.0948   -0.0302   -0.0000
          21    0.0375    0.0613   -0.0000   -0.2439    0.1543   -0.0000    0.0000    0.4192
          22    0.0000    0.0000    0.0170   -0.0000    0.0000   -0.0490   -0.0748    0.0000
          23   -0.0000    0.0000   -0.0665   -0.0000    0.0000   -0.0177   -0.1633    0.0000
          24    0.0138   -0.1017   -0.0000    0.1328   -0.2862   -0.0000    0.0000    0.2198
          25    0.0000   -0.0000    0.0053    0.0000    0.0000   -0.0713    0.0424   -0.0000
          26    0.0000   -0.0000    0.0899    0.0000    0.0000   -0.0445   -0.0990    0.0000
          27   -0.0314    0.0704    0.0000   -0.1894   -0.2388   -0.0000    0.0000    0.2073
          28    0.1920   -0.0826    0.1384   -0.0295   -0.0015    0.0675   -0.0165    0.0007
          29   -0.1480   -0.0683   -0.0245   -0.0317    0.0003    0.0941   -0.0194    0.0005
          30   -0.1497   -0.0976   -0.0010   -0.0021    0.0020    0.0010   -0.0003    0.0026
          31   -0.1920    0.0826    0.1384    0.0295    0.0015    0.0675   -0.0165   -0.0007
          32    0.1480    0.0683   -0.0245    0.0317   -0.0003    0.0941   -0.0194   -0.0005
          33   -0.1497   -0.0976    0.0010   -0.0021    0.0020   -0.0010    0.0003    0.0026
          34   -0.0000    0.0000    0.0321    0.0000   -0.0000    0.0630    0.0238   -0.0000
          35   -0.0000    0.0000   -0.1688   -0.0000   -0.0000    0.0824    0.0386   -0.0000
          36    0.2732   -0.1475   -0.0000   -0.0095    0.0035    0.0000    0.0000    0.0016


   Root No.       9        10        11        12        13        14        15        16

                 6 A"      7 A"      4 A'      5 A'      8 A"      6 A'      7 A'      8 A'  

                 861.3     890.6    1011.7    1048.5    1057.5    1120.7    1138.1    1199.2
  
           1    0.0000   -0.0000    0.0124    0.0112   -0.0000    0.0009   -0.0112   -0.0095
           2   -0.0000    0.0000    0.0139   -0.0116    0.0000   -0.0069   -0.0097   -0.0065
           3    0.0043   -0.0068   -0.0000   -0.0000   -0.0334   -0.0000   -0.0000   -0.0000
           4   -0.0000   -0.0000    0.0993   -0.0381    0.0000    0.0015   -0.0107   -0.0498
           5   -0.0000   -0.0000   -0.0280    0.0154   -0.0000    0.0013   -0.0199   -0.0067
           6    0.0573    0.0466    0.0000    0.0000   -0.0009   -0.0000   -0.0000   -0.0000
           7   -0.0000    0.0000    0.0127    0.0030   -0.0000   -0.0287   -0.0425    0.0050
           8   -0.0000    0.0000   -0.0398    0.0008    0.0000   -0.0079    0.0164   -0.0193
           9   -0.0235   -0.1006    0.0000    0.0000   -0.0013   -0.0000    0.0000   -0.0000
          10   -0.0000   -0.0000   -0.0277    0.0029   -0.0000    0.0120    0.0148    0.0252
          11    0.0000   -0.0000    0.0025   -0.0095    0.0000   -0.0296   -0.0192   -0.0151
          12    0.0261    0.0145   -0.0000    0.0000    0.0028   -0.0000   -0.0000    0.0000
          13    0.0000   -0.0000   -0.0397   -0.0183    0.0000   -0.0221    0.0331    0.0190
          14    0.0000   -0.0000    0.1081    0.0233   -0.0000    0.0176   -0.0299    0.0298
          15   -0.0897    0.0293    0.0000   -0.0000   -0.0062    0.0000   -0.0000    0.0000
          16    0.0000   -0.0000   -0.0340    0.0562   -0.0000   -0.0067    0.0191    0.0098
          17    0.0000    0.0000   -0.0680   -0.0282    0.0000    0.0095    0.0115    0.0089
          18   -0.0012   -0.0013    0.0000    0.0000    0.0765    0.0000    0.0000    0.0000
          19    0.0000    0.0000    0.0421   -0.0251    0.0000    0.3779   -0.0388    0.1491
          20    0.0000    0.0000   -0.0672    0.0188   -0.0000    0.2579   -0.0343    0.1258
          21   -0.2585   -0.1257    0.0000    0.0000   -0.0040    0.0000   -0.0000    0.0000
          22   -0.0000   -0.0000   -0.0856    0.0331   -0.0000    0.0308   -0.1524   -0.1212
          23   -0.0000   -0.0000    0.2043   -0.0789    0.0000   -0.1476    0.2943    0.2891
          24    0.0288    0.4945    0.0000    0.0000    0.0072   -0.0000    0.0000    0.0000
          25   -0.0000    0.0000   -0.0426   -0.0079    0.0000    0.0286    0.1434   -0.0701
          26   -0.0000    0.0000    0.0993    0.0433   -0.0000    0.1786    0.3437   -0.2860
          27    0.4717   -0.1704    0.0000    0.0000    0.0146    0.0000    0.0000   -0.0000
          28    0.0105    0.0013   -0.0717   -0.1713   -0.1630    0.0320   -0.0067    0.0011
          29    0.0123    0.0034   -0.0652   -0.0590   -0.2777    0.0015    0.0054   -0.0025
          30    0.0065    0.0012   -0.0017    0.0133   -0.1189   -0.0104    0.0029   -0.0042
          31   -0.0105   -0.0013   -0.0717   -0.1713    0.1630    0.0320   -0.0067    0.0011
          32   -0.0123   -0.0034   -0.0652   -0.0590    0.2777    0.0015    0.0054   -0.0025
          33    0.0065    0.0012    0.0017   -0.0133   -0.1189    0.0104   -0.0029    0.0042
          34    0.0000   -0.0000   -0.0143    0.1125   -0.0000   -0.0127    0.0223    0.0117
          35    0.0000   -0.0000   -0.0031    0.2920   -0.0000   -0.0301    0.0473    0.0247
          36    0.0041    0.0026   -0.0000   -0.0000   -0.1665   -0.0000    0.0000    0.0000


   Root No.      17        18        19        20        21        22        23        24

                 9 A"      9 A'     10 A'     11 A'     12 A'     13 A'     14 A'     15 A'  

                1234.2    1236.0    1322.1    1337.4    1378.3    1436.5    1516.0    1518.3
  
           1   -0.0000   -0.0053    0.0665    0.0045    0.0836    0.0315    0.1239    0.0045
           2    0.0000    0.0039    0.0510    0.0041   -0.0835   -0.0223    0.0756    0.1217
           3   -0.0059    0.0000    0.0000    0.0000   -0.0000    0.0000    0.0000    0.0000
           4    0.0000    0.0045   -0.0033   -0.0050   -0.0641   -0.0678   -0.0689   -0.0312
           5   -0.0000   -0.0006   -0.0590    0.0034    0.0065   -0.1168    0.0712   -0.0781
           6   -0.0001    0.0000   -0.0000   -0.0000   -0.0000   -0.0000    0.0000   -0.0000
           7   -0.0000   -0.0020   -0.0909   -0.0003    0.0024    0.1181   -0.0035    0.0243
           8   -0.0000   -0.0028    0.1262   -0.0057    0.0334    0.0425   -0.1006    0.0621
           9    0.0000    0.0000    0.0000   -0.0000    0.0000    0.0000   -0.0000    0.0000
          10    0.0000    0.0019    0.1338   -0.0054   -0.0424   -0.0146    0.0007   -0.0891
          11    0.0000    0.0008   -0.0486   -0.0030   -0.0535    0.0849    0.0214   -0.0573
          12    0.0000   -0.0000   -0.0000   -0.0000   -0.0000    0.0000    0.0000   -0.0000
          13    0.0000    0.0022   -0.0829    0.0049    0.0290   -0.0867   -0.0170    0.1059
          14   -0.0000   -0.0047    0.0032   -0.0006    0.1013   -0.0301   -0.0509   -0.0011
          15   -0.0008   -0.0000   -0.0000    0.0000    0.0000   -0.0000   -0.0000    0.0000
          16    0.0000    0.0268   -0.0360   -0.0391   -0.0152   -0.0018   -0.0393   -0.0113
          17   -0.0000   -0.0242   -0.0449   -0.0533    0.0246    0.0052   -0.0376   -0.0418
          18   -0.0315    0.0000   -0.0000    0.0000    0.0000    0.0000   -0.0000   -0.0000
          19    0.0000    0.0311   -0.0798   -0.0004   -0.1325    0.1373   -0.0445    0.1114
          20    0.0000    0.0175   -0.0994    0.0061   -0.0557    0.0082    0.0783    0.0261
          21   -0.0002    0.0000   -0.0000   -0.0000   -0.0000    0.0000    0.0000    0.0000
          22   -0.0000   -0.0032   -0.0117   -0.0035    0.0205    0.0769   -0.0812    0.0592
          23    0.0000    0.0019   -0.0276   -0.0003   -0.0431    0.1276    0.0688   -0.0646
          24    0.0003    0.0000   -0.0000   -0.0000   -0.0000    0.0000    0.0000    0.0000
          25    0.0000    0.0012   -0.0990    0.0047    0.0296   -0.0346    0.0315    0.0825
          26   -0.0000   -0.0073   -0.1261    0.0009    0.0629    0.1495    0.0979   -0.0434
          27    0.0068   -0.0000   -0.0000    0.0000    0.0000    0.0000    0.0000   -0.0000
          28   -0.2756   -0.1647   -0.0140    0.2125    0.0614    0.0217   -0.0331   -0.0631
          29   -0.0176    0.2398   -0.0188    0.1695    0.0543    0.0207   -0.0378   -0.0558
          30    0.0315    0.2130    0.0019    0.0955    0.0174    0.0092   -0.0187   -0.0200
          31    0.2756   -0.1647   -0.0140    0.2125    0.0614    0.0217   -0.0331   -0.0631
          32    0.0176    0.2398   -0.0188    0.1695    0.0543    0.0207   -0.0378   -0.0558
          33    0.0315   -0.2130   -0.0019   -0.0955   -0.0174   -0.0092    0.0187    0.0200
          34   -0.0000   -0.0279   -0.0256    0.0576   -0.0429   -0.0034   -0.0374    0.0037
          35   -0.0000   -0.1719   -0.0473    0.3090   -0.1466   -0.0144   -0.1130    0.0009
          36    0.3983   -0.0000   -0.0000    0.0000    0.0000    0.0000   -0.0000   -0.0000


   Root No.      25        26        27        28        29        30

                10 A"     16 A'     17 A'     18 A'     19 A'     20 A'  

                2659.5    2667.5    2759.8    2769.5    2780.2    2793.2
  
           1   -0.0000   -0.0014   -0.0029   -0.0028    0.0029    0.0003
           2    0.0000    0.0020   -0.0044    0.0009   -0.0004   -0.0019
           3   -0.0024    0.0000    0.0000    0.0000    0.0000   -0.0000
           4    0.0000    0.0006   -0.0005   -0.0028    0.0096    0.0221
           5   -0.0000   -0.0005    0.0007    0.0059   -0.0189   -0.0332
           6   -0.0000   -0.0000    0.0000    0.0000   -0.0000   -0.0000
           7   -0.0000   -0.0001   -0.0017   -0.0087   -0.0371    0.0195
           8    0.0000    0.0001   -0.0001   -0.0051   -0.0172    0.0067
           9   -0.0000   -0.0000    0.0000   -0.0000   -0.0000    0.0000
          10   -0.0000    0.0000    0.0007   -0.0029   -0.0031   -0.0001
          11   -0.0000   -0.0001    0.0001    0.0010   -0.0003    0.0014
          12   -0.0000    0.0000   -0.0000   -0.0000    0.0000   -0.0000
          13    0.0000    0.0009    0.0058   -0.0425    0.0069   -0.0114
          14   -0.0000   -0.0009   -0.0016    0.0115   -0.0002    0.0036
          15   -0.0001    0.0000   -0.0000   -0.0000    0.0000   -0.0000
          16   -0.0000   -0.0380   -0.0138   -0.0033    0.0013   -0.0007
          17    0.0000    0.0280   -0.0156   -0.0018    0.0005   -0.0014
          18   -0.0545    0.0000   -0.0000    0.0000    0.0000   -0.0000
          19   -0.0000   -0.0043    0.0049    0.0522   -0.1576   -0.2713
          20    0.0000    0.0070   -0.0078   -0.0759    0.2312    0.3999
          21    0.0006   -0.0000    0.0000   -0.0000    0.0000    0.0000
          22   -0.0000    0.0001    0.0186    0.1270    0.4808   -0.2202
          23   -0.0000   -0.0001    0.0078    0.0507    0.1946   -0.0894
          24   -0.0001   -0.0000    0.0000    0.0000    0.0000   -0.0000
          25   -0.0000   -0.0115   -0.0731    0.5368   -0.0724    0.1251
          26    0.0000    0.0031    0.0213   -0.1569    0.0221   -0.0364
          27    0.0002    0.0000   -0.0000   -0.0000    0.0000   -0.0000
          28    0.0759    0.0215   -0.0478   -0.0071    0.0023   -0.0042
          29   -0.2762   -0.1337    0.1557    0.0226   -0.0076    0.0142
          30    0.3563    0.2059   -0.2227   -0.0323    0.0110   -0.0196
          31   -0.0759    0.0215   -0.0478   -0.0071    0.0023   -0.0042
          32    0.2762   -0.1337    0.1557    0.0226   -0.0076    0.0142
          33    0.3563   -0.2059    0.2227    0.0323   -0.0110    0.0196
          34    0.0000    0.4258    0.2980    0.0598   -0.0217    0.0217
          35   -0.0000   -0.0892   -0.0742   -0.0139    0.0049   -0.0052
          36   -0.0278    0.0000   -0.0000   -0.0000    0.0000   -0.0000


           MASS-WEIGHTED COORDINATE ANALYSIS (NORMAL COORDINATES)


   Root No.       1         2         3         4         5         6         7         8

                 1 A"      2 A"      1 A'      3 A"      4 A"      2 A'      3 A'      5 A"  

                  23.4     177.1     348.0     476.3     561.1     676.8     823.8     828.5
  
           1   -0.0000    0.0000   -0.3405   -0.0000   -0.0000    0.1859    0.1825   -0.0000
           2    0.0000   -0.0000    0.2385   -0.0000   -0.0000    0.2668   -0.1312    0.0000
           3    0.0706    0.6326    0.0000    0.5632    0.0502    0.0000    0.0000    0.1031
           4   -0.0000    0.0000   -0.3239    0.0000   -0.0000    0.1116   -0.0210    0.0000
           5   -0.0000   -0.0000   -0.0572    0.0000   -0.0000   -0.2965   -0.3526    0.0000
           6    0.1411    0.2003   -0.0000   -0.4573    0.1673   -0.0000   -0.0000   -0.3652
           7    0.0000    0.0000    0.0097   -0.0000    0.0000   -0.1596   -0.5164    0.0000
           8   -0.0000    0.0000   -0.1843   -0.0000    0.0000   -0.2922   -0.1235    0.0000
           9    0.0531   -0.2703   -0.0000    0.1985   -0.4134   -0.0000   -0.0000   -0.1124
          10    0.0000   -0.0000    0.1960    0.0000   -0.0000   -0.2129   -0.0289    0.0000
          11    0.0000    0.0000    0.0607   -0.0000   -0.0000   -0.2383    0.6008   -0.0000
          12   -0.1086   -0.2600    0.0000    0.1081    0.6090   -0.0000    0.0000    0.1062
          13   -0.0000   -0.0000   -0.0473    0.0000    0.0000   -0.2928    0.3103   -0.0000
          14    0.0000   -0.0000    0.3220    0.0000    0.0000    0.0099    0.1048   -0.0000
          15   -0.1112    0.2039    0.0000   -0.3968   -0.3229   -0.0000   -0.0000   -0.1886
          16    0.0000   -0.0000    0.3861    0.0000   -0.0000    0.3511    0.0469   -0.0000
          17   -0.0000    0.0000   -0.2817   -0.0000   -0.0000    0.5001   -0.0407    0.0000
          18   -0.0384   -0.3858   -0.0000    0.0666    0.0056    0.0000    0.0000    0.0134
          19   -0.0000    0.0000   -0.1587    0.0000   -0.0000   -0.0481    0.0958   -0.0000
          20   -0.0000    0.0000   -0.0615    0.0000   -0.0000   -0.1380   -0.0339   -0.0000
          21    0.0745    0.1018   -0.0000   -0.3643    0.2175   -0.0000    0.0000    0.7239
          22    0.0000    0.0000    0.0315   -0.0000    0.0000   -0.0714   -0.0841    0.0000
          23   -0.0000    0.0000   -0.1229   -0.0000    0.0000   -0.0257   -0.1834    0.0000
          24    0.0275   -0.1689   -0.0000    0.1983   -0.4035    0.0000    0.0000    0.3796
          25    0.0000   -0.0000    0.0098    0.0000    0.0000   -0.1038    0.0476   -0.0000
          26    0.0000   -0.0000    0.1662    0.0000    0.0000   -0.0648   -0.1112    0.0000
          27   -0.0624    0.1169    0.0000   -0.2829   -0.3366   -0.0000    0.0000    0.3579
          28    0.3816   -0.1372    0.2557   -0.0440   -0.0021    0.0982   -0.0185    0.0013
          29   -0.2942   -0.1134   -0.0453   -0.0474    0.0005    0.1370   -0.0218    0.0009
          30   -0.2975   -0.1621   -0.0019   -0.0031    0.0028    0.0015   -0.0003    0.0046
          31   -0.3816    0.1372    0.2557    0.0440    0.0021    0.0982   -0.0185   -0.0013
          32    0.2942    0.1134   -0.0453    0.0474   -0.0005    0.1370   -0.0218   -0.0009
          33   -0.2975   -0.1621    0.0019   -0.0031    0.0028   -0.0015    0.0003    0.0046
          34   -0.0000    0.0000    0.0594    0.0000   -0.0000    0.0917    0.0268   -0.0000
          35   -0.0000    0.0000   -0.3120   -0.0000   -0.0000    0.1200    0.0433   -0.0000
          36    0.5431   -0.2450   -0.0000   -0.0142    0.0049    0.0000    0.0000    0.0028


   Root No.       9        10        11        12        13        14        15        16

                 6 A"      7 A"      4 A'      5 A'      8 A"      6 A'      7 A'      8 A'  

                 861.3     890.6    1011.7    1048.5    1057.5    1120.7    1138.1    1199.2
  
           1    0.0000   -0.0000    0.0670    0.0821   -0.0000    0.0063   -0.0729   -0.0655
           2   -0.0000    0.0000    0.0752   -0.0850    0.0000   -0.0468   -0.0634   -0.0450
           3    0.0242   -0.0381   -0.0000   -0.0000   -0.2108   -0.0000   -0.0000   -0.0000
           4   -0.0000   -0.0000    0.4965   -0.2595    0.0000    0.0095   -0.0645   -0.3197
           5   -0.0000   -0.0000   -0.1401    0.1049   -0.0000    0.0084   -0.1201   -0.0432
           6    0.2972    0.2400    0.0000    0.0000   -0.0050   -0.0000   -0.0000   -0.0000
           7   -0.0000    0.0000    0.0634    0.0206   -0.0000   -0.1794   -0.2570    0.0318
           8   -0.0000    0.0000   -0.1993    0.0054    0.0000   -0.0494    0.0995   -0.1237
           9   -0.1220   -0.5179    0.0000    0.0000   -0.0074   -0.0000    0.0000   -0.0000
          10   -0.0000   -0.0000   -0.1494    0.0214   -0.0000    0.0808    0.0966    0.1749
          11    0.0000   -0.0000    0.0134   -0.0696    0.0000   -0.1998   -0.1252   -0.1045
          12    0.1462    0.0807   -0.0000    0.0000    0.0176   -0.0000   -0.0000    0.0000
          13    0.0000   -0.0000   -0.1987   -0.1244    0.0000   -0.1385    0.2004    0.1220
          14    0.0000   -0.0000    0.5410    0.1589   -0.0000    0.1103   -0.1811    0.1910
          15   -0.4659    0.1509    0.0000   -0.0000   -0.0361    0.0000   -0.0000    0.0000
          16    0.0000   -0.0000   -0.1699    0.3830   -0.0000   -0.0420    0.1153    0.0632
          17   -0.0000    0.0000   -0.3404   -0.1921    0.0000    0.0596    0.0695    0.0573
          18   -0.0062   -0.0069    0.0000    0.0000    0.4465    0.0000    0.0000    0.0000
          19    0.0000    0.0000    0.0610   -0.0496    0.0000    0.6845   -0.0679    0.2770
          20    0.0000    0.0000   -0.0974    0.0372   -0.0000    0.4672   -0.0602    0.2338
          21   -0.3888   -0.1874    0.0000    0.0000   -0.0068    0.0000   -0.0000    0.0000
          22   -0.0000   -0.0000   -0.1240    0.0653   -0.0000    0.0557   -0.2670   -0.2253
          23   -0.0000   -0.0000    0.2960   -0.1556    0.0000   -0.2675    0.5157    0.5373
          24    0.0433    0.7373    0.0000    0.0000    0.0123   -0.0000    0.0000    0.0000
          25   -0.0000    0.0000   -0.0618   -0.0157    0.0000    0.0517    0.2513   -0.1303
          26   -0.0000    0.0000    0.1439    0.0855   -0.0000    0.3236    0.6022   -0.5316
          27    0.7094   -0.2540    0.0000    0.0000    0.0248    0.0000    0.0000   -0.0000
          28    0.0158    0.0019   -0.1039   -0.3378   -0.2757    0.0580   -0.0117    0.0021
          29    0.0184    0.0051   -0.0944   -0.1164   -0.4698    0.0028    0.0094   -0.0046
          30    0.0098    0.0017   -0.0025    0.0263   -0.2012   -0.0189    0.0051   -0.0077
          31   -0.0158   -0.0019   -0.1039   -0.3378    0.2757    0.0580   -0.0117    0.0021
          32   -0.0184   -0.0051   -0.0944   -0.1164    0.4698    0.0028    0.0094   -0.0046
          33    0.0098    0.0017    0.0025   -0.0263   -0.2012    0.0189   -0.0051    0.0077
          34    0.0000   -0.0000   -0.0207    0.2219   -0.0000   -0.0230    0.0390    0.0217
          35    0.0000   -0.0000   -0.0044    0.5759   -0.0000   -0.0546    0.0829    0.0460
          36    0.0062    0.0038   -0.0000   -0.0000   -0.2816   -0.0000    0.0000    0.0000


   Root No.      17        18        19        20        21        22        23        24

                 9 A"      9 A'     10 A'     11 A'     12 A'     13 A'     14 A'     15 A'  

                1234.2    1236.0    1322.1    1337.4    1378.3    1436.5    1516.0    1518.3
  
           1   -0.0000   -0.0358    0.2647    0.0296    0.4287    0.1409    0.5700    0.0202
           2    0.0000    0.0260    0.2031    0.0272   -0.4279   -0.0997    0.3478    0.5423
           3   -0.0385    0.0000    0.0000    0.0000   -0.0000    0.0000    0.0000    0.0000
           4    0.0000    0.0281   -0.0121   -0.0308   -0.3040   -0.2806   -0.2937   -0.1289
           5   -0.0000   -0.0039   -0.2175    0.0208    0.0310   -0.4831    0.3034   -0.3223
           6   -0.0007    0.0000   -0.0000   -0.0000   -0.0000   -0.0000    0.0000   -0.0000
           7   -0.0000   -0.0122   -0.3350   -0.0018    0.0116    0.4885   -0.0151    0.1001
           8   -0.0000   -0.0172    0.4652   -0.0347    0.1587    0.1759   -0.4285    0.2562
           9    0.0000    0.0000    0.0000   -0.0000    0.0000    0.0000   -0.0000    0.0000
[...]
 REDUCED MASS        2.4708         N  1 -- C  5          +8.3% ( 60.2%)     95.5%
 EFFECTIVE MASS     11.3073
 FORCE CONSTANT      1.4899

 VIBRATION         12    5A'          ATOM PAIR      ENERGY CONTRIBUTION    RADIAL
 FREQUENCY          1048.55         C  6 -- H 12         +28.1% ( 79.0%)     19.5%
 TRANSITION DIPOLE   0.3279         C  6 -- H 10         +15.4% ( 58.6%)      4.0%
 TRAVEL (Ang.)       0.3070         C  6 -- H 11         +15.4% ( 58.6%)      4.0%
 REDUCED MASS        0.6821         N  1 -- C  6          +7.1% ( 39.6%)      7.5%
 EFFECTIVE MASS      4.7890
 FORCE CONSTANT      0.4419

 VIBRATION         13    8A"          ATOM PAIR      ENERGY CONTRIBUTION    RADIAL
 FREQUENCY          1057.46         C  6 -- H 11         +35.6% ( 74.7%)     13.3%
 TRANSITION DIPOLE   0.3452         C  6 -- H 10         +35.6% ( 74.7%)     13.3%
 TRAVEL (Ang.)       0.2934         C  6 -- H 12         +17.0% ( 51.7%)      0.0%
 REDUCED MASS        0.7407         N  1 -- C  6         +10.6% ( 40.7%)      0.0%
 EFFECTIVE MASS      3.2693
 FORCE CONSTANT      0.4880

 VIBRATION         14    6A'          ATOM PAIR      ENERGY CONTRIBUTION    RADIAL
 FREQUENCY          1120.72         C  2 -- H  7         +49.4% ( 82.7%)      0.0%
 TRANSITION DIPOLE   0.3163         C  5 -- H  9          +9.6% ( 36.4%)     18.0%
 TRAVEL (Ang.)       0.3309         C  3 -- H  8          +7.5% ( 32.2%)     17.1%
 REDUCED MASS        0.5496         C  3 -- N  4          +7.5% ( 32.2%)     98.9%
 EFFECTIVE MASS      2.6242
 FORCE CONSTANT      0.4067

 VIBRATION         15    7A'          ATOM PAIR      ENERGY CONTRIBUTION    RADIAL
 FREQUENCY          1138.06         C  5 -- H  9         +28.6% ( 71.1%)      5.0%
 TRANSITION DIPOLE   0.2937         C  3 -- H  8         +20.2% ( 59.7%)     13.3%
 TRAVEL (Ang.)       0.3634         C  3 -- C  5          +9.8% ( 41.5%)     72.5%
 REDUCED MASS        0.4487         C  3 -- N  4          +7.9% ( 37.4%)     99.6%
 EFFECTIVE MASS      3.7236
 FORCE CONSTANT      0.3424

 VIBRATION         16    8A'          ATOM PAIR      ENERGY CONTRIBUTION    RADIAL
 FREQUENCY          1199.23         C  5 -- H  9         +24.0% ( 59.0%)      0.2%
 TRANSITION DIPOLE   0.1448         C  3 -- H  8         +23.0% ( 57.8%)      0.1%
 TRAVEL (Ang.)       0.3684         C  2 -- H  7         +15.4% ( 47.3%)      2.3%
 REDUCED MASS        0.4142         C  2 -- C  5          +8.9% ( 35.9%)     18.8%
 EFFECTIVE MASS      2.9582
 FORCE CONSTANT      0.3510

 VIBRATION         17    9A"          ATOM PAIR      ENERGY CONTRIBUTION    RADIAL
 FREQUENCY          1234.22         C  6 -- H 12         +47.2% ( 57.9%)      0.0%
 TRANSITION DIPOLE   0.5083         C  6 -- H 10         +25.0% ( 42.2%)      6.0%
 TRAVEL (Ang.)       0.3849         C  6 -- H 11         +25.0% ( 42.2%)      6.0%
 REDUCED MASS        0.3688         N  1 -- C  6          +2.7% ( 14.0%)      0.0%
 EFFECTIVE MASS      1.3136
 FORCE CONSTANT      0.3310

 VIBRATION         18    9A'          ATOM PAIR      ENERGY CONTRIBUTION    RADIAL
 FREQUENCY          1236.05         C  6 -- H 11         +40.9% ( 55.7%)      1.3%
 TRANSITION DIPOLE   0.4487         C  6 -- H 10         +40.9% ( 55.7%)      1.3%
 TRAVEL (Ang.)       0.3702         C  6 -- H 12         +11.2% ( 29.1%)     40.2%
 REDUCED MASS        0.3981         N  1 -- C  6          +4.5% ( 18.5%)      1.0%
 EFFECTIVE MASS      1.5143
 FORCE CONSTANT      0.3583

 VIBRATION         19   10A'          ATOM PAIR      ENERGY CONTRIBUTION    RADIAL
 FREQUENCY          1322.13         C  3 -- N  4         +20.7% ( 78.0%)    100.0%
 TRANSITION DIPOLE   0.7416         N  4 -- C  5         +12.3% ( 60.0%)     39.3%
 TRAVEL (Ang.)       0.1289         C  2 -- C  3         +10.9% ( 56.6%)     56.8%
 REDUCED MASS        3.0694         N  1 -- C  3         +10.1% ( 54.5%)     24.0%
 EFFECTIVE MASS     12.3018
 FORCE CONSTANT      3.1612

 VIBRATION         20   11A'          ATOM PAIR      ENERGY CONTRIBUTION    RADIAL
 FREQUENCY          1337.38         C  6 -- H 12         +32.2% ( 60.4%)      1.5%
 TRANSITION DIPOLE   0.4993         C  6 -- H 11         +28.1% ( 56.4%)      1.5%
 TRAVEL (Ang.)       0.3020         C  6 -- H 10         +28.1% ( 56.4%)      1.5%
 REDUCED MASS        0.5527         N  1 -- C  6          +9.6% ( 33.0%)     99.9%
 EFFECTIVE MASS      2.5615
 FORCE CONSTANT      0.5824

 VIBRATION         21   12A'          ATOM PAIR      ENERGY CONTRIBUTION    RADIAL
 FREQUENCY          1378.34         N  1 -- C  5         +19.0% ( 69.9%)    100.0%
 TRANSITION DIPOLE   0.5222         N  1 -- C  2         +15.1% ( 62.2%)     71.8%
 TRAVEL (Ang.)       0.1284         N  4 -- C  5         +12.7% ( 57.2%)     78.9%
 REDUCED MASS        2.9663         N  1 -- C  6         +10.1% ( 51.0%)      4.3%
 EFFECTIVE MASS     11.2945
 FORCE CONSTANT      3.3203

 VIBRATION         22   13A'          ATOM PAIR      ENERGY CONTRIBUTION    RADIAL
 FREQUENCY          1436.48         C  2 -- C  3         +19.5% ( 75.8%)     69.4%
 TRANSITION DIPOLE   0.6521         C  3 -- C  5         +12.3% ( 60.1%)     89.0%
 TRAVEL (Ang.)       0.1340         C  3 -- N  4         +11.3% ( 57.5%)     92.6%
 REDUCED MASS        2.6142         C  2 -- C  5         +10.6% ( 55.8%)     56.3%
 EFFECTIVE MASS     11.7080
 FORCE CONSTANT      3.1782

 VIBRATION         23   14A'          ATOM PAIR      ENERGY CONTRIBUTION    RADIAL
 FREQUENCY          1515.96         N  1 -- C  2         +18.5% ( 72.4%)     99.7%
 TRANSITION DIPOLE   1.3410         N  1 -- C  3         +16.3% ( 68.0%)     92.5%
 TRAVEL (Ang.)       0.1105         N  1 -- C  6         +14.2% ( 63.4%)     88.3%
 REDUCED MASS        3.6433         N  1 -- C  5         +12.4% ( 59.4%)     16.4%
 EFFECTIVE MASS     12.1181         C  2 -- C  3         +10.8% ( 55.4%)     64.4%
 FORCE CONSTANT      4.9331

 VIBRATION         24   15A'          ATOM PAIR      ENERGY CONTRIBUTION    RADIAL
 FREQUENCY          1518.29         N  1 -- C  5         +14.8% ( 61.7%)     88.4%
 TRANSITION DIPOLE   0.1916         N  4 -- C  5         +14.5% ( 61.0%)     87.5%
 TRAVEL (Ang.)       0.1306         N  1 -- C  2         +11.3% ( 54.0%)      2.9%
 REDUCED MASS        2.6044         N  1 -- C  6          +9.6% ( 49.8%)     74.9%
 EFFECTIVE MASS     12.3716
 FORCE CONSTANT      3.5372

 VIBRATION         25   10A"          ATOM PAIR      ENERGY CONTRIBUTION    RADIAL
 FREQUENCY          2659.47         C  6 -- H 10         +49.2% ( 72.2%)     97.9%
 TRANSITION DIPOLE   0.7246         C  6 -- H 11         +49.2% ( 72.2%)     97.9%
 TRAVEL (Ang.)       0.2253         N  1 -- C  6          +0.9% (  9.6%)      0.0%
 REDUCED MASS        0.4997         C  6 -- H 12          +0.8% (  9.3%)      0.0%
 EFFECTIVE MASS      1.4498
 FORCE CONSTANT      2.0824

 VIBRATION         26   16A'          ATOM PAIR      ENERGY CONTRIBUTION    RADIAL
 FREQUENCY          2667.53         C  6 -- H 12         +60.2% ( 80.0%)     99.5%
 TRANSITION DIPOLE   0.6467         C  6 -- H 11         +19.4% ( 45.4%)     87.5%
 TRAVEL (Ang.)       0.2354         C  6 -- H 10         +19.4% ( 45.4%)     87.5%
 REDUCED MASS        0.4563         N  1 -- C  6          +0.9% ( 10.0%)      0.0%
 EFFECTIVE MASS      1.4592
 FORCE CONSTANT      1.9130

 VIBRATION         27   17A'          ATOM PAIR      ENERGY CONTRIBUTION    RADIAL
 FREQUENCY          2759.75         C  6 -- H 12         +37.4% ( 59.0%)     96.3%
 TRANSITION DIPOLE   0.4996         C  6 -- H 11         +29.6% ( 52.5%)     94.9%
 TRAVEL (Ang.)       0.2792         C  6 -- H 10         +29.6% ( 52.5%)     94.9%
 REDUCED MASS        0.3134         C  5 -- H  9          +2.6% ( 15.6%)    100.0%
 EFFECTIVE MASS      1.1401
 FORCE CONSTANT      1.4064

 VIBRATION         28   18A'          ATOM PAIR      ENERGY CONTRIBUTION    RADIAL
 FREQUENCY          2769.54         C  5 -- H  9         +85.6% ( 95.0%)    100.0%
 TRANSITION DIPOLE   1.2800         C  3 -- H  8          +5.1% ( 23.2%)    100.0%
 TRAVEL (Ang.)       0.1788         C  2 -- H  7          +2.3% ( 15.6%)    100.0%
 REDUCED MASS        0.7614         C  3 -- C  5          +1.3% ( 11.6%)     80.5%
 EFFECTIVE MASS      1.4200
 FORCE CONSTANT      3.4411

 VIBRATION         29   19A'          ATOM PAIR      ENERGY CONTRIBUTION    RADIAL
 FREQUENCY          2780.23         C  3 -- H  8         +72.3% ( 87.2%)    100.0%
 TRANSITION DIPOLE   0.8768         C  2 -- H  7         +21.0% ( 47.0%)    100.0%
 TRAVEL (Ang.)       0.2039         C  5 -- H  9          +1.6% ( 12.8%)     99.7%
 REDUCED MASS        0.5835         C  3 -- C  5          +1.1% ( 10.9%)     87.3%
 EFFECTIVE MASS      1.4192
 FORCE CONSTANT      2.6572

 VIBRATION         30   20A'          ATOM PAIR      ENERGY CONTRIBUTION    RADIAL
 FREQUENCY          2793.16         C  2 -- H  7         +71.6% ( 86.7%)    100.0%
 TRANSITION DIPOLE   0.7718         C  3 -- H  8         +17.3% ( 42.7%)     99.9%
 TRAVEL (Ang.)       0.2069         C  5 -- H  9          +5.2% ( 23.4%)    100.0%
 REDUCED MASS        0.5641         C  2 -- C  3          +1.6% ( 13.2%)     88.8%
 EFFECTIVE MASS      1.5090
 FORCE CONSTANT      2.5932

      SYMMETRY NUMBER FOR POINT-GROUP Cs  =  1


          SYSTEM IS A GROUND STATE


 All coordinates are Cartesian
 mi


          MOLECULE IS NOT LINEAR

          THERE ARE 30 GENUINE VIBRATIONS IN THIS SYSTEM
          THIS THERMODYNAMICS CALCULATION IS LIMITED TO
          MOLECULES WHICH HAVE NO INTERNAL ROTATIONS




                    CALCULATED THERMODYNAMIC PROPERTIES
                                          *
   TEMP. (K)   PARTITION FUNCTION   H.O.F.    ENTHALPY  HEAT CAPACITY ENTROPY
                                   KCAL/MOL   CAL/MOLE    CAL/K/MOL  CAL/K/MOL


 298.00  VIB.     0.2772D+02                  1811.5251    13.7163    12.6806
         ROT.     0.9795D+05                   888.2803     2.9808    25.8181
         INT.     0.2715D+07                  2699.8054    16.6971    38.4988
         TRA.     0.7192D+27                  1480.4672     4.9680    39.1280
         TOT.                       32.838    4180.2725    21.6651    77.6268

 200.00  VIB.     0.1049D+02                   771.0696     7.7497     8.5259
         ROT.     0.5385D+05                   596.1613     2.9808    24.6295
         INT.     0.5649D+06                  1367.2309    10.7305    33.1554
         TRA.     0.3955D+27                   993.6021     4.9680    37.1469
         TOT.                       31.019    2360.8330    15.6985    70.3023

 210.00  VIB.     0.1156D+02                   851.2178     8.2837     8.9168
         ROT.     0.5794D+05                   625.9693     2.9808    24.7749
         INT.     0.6697D+06                  1477.1871    11.2645    33.6917
         TRA.     0.4255D+27                  1043.2822     4.9680    37.3893
         TOT.                       31.179    2520.4694    16.2325    71.0810

 220.00  VIB.     0.1274D+02                   936.8150     8.8393     9.3149
         ROT.     0.6213D+05                   655.7774     2.9808    24.9136
         INT.     0.7914D+06                  1592.5924    11.8201    34.2285
         TRA.     0.4562D+27                  1092.9623     4.9680    37.6204
         TOT.                       31.344    2685.5548    16.7881    71.8489

 230.00  VIB.     0.1404D+02                  1028.0708     9.4151     9.7205
         ROT.     0.6641D+05                   685.5855     2.9808    25.0461
         INT.     0.9327D+06                  1713.6562    12.3959    34.7665
         TRA.     0.4877D+27                  1142.6424     4.9680    37.8412
         TOT.                       31.514    2856.2987    17.3639    72.6078

 240.00  VIB.     0.1549D+02                  1125.1785    10.0094    10.1337
         ROT.     0.7079D+05                   715.3935     2.9808    25.1729
         INT.     0.1097D+07                  1840.5721    12.9902    35.3066
         TRA.     0.5198D+27                  1192.3226     4.9680    38.0527
         TOT.                       31.691    3032.8946    17.9582    73.3593

 250.00  VIB.     0.1710D+02                  1228.3135    10.6202    10.5546
         ROT.     0.7526D+05                   745.2016     2.9808    25.2946
         INT.     0.1287D+07                  1973.5151    13.6010    35.8492
         TRA.     0.5527D+27                  1242.0027     4.9680    38.2555
         TOT.                       31.874    3215.5177    18.5690    74.1047

 260.00  VIB.     0.1888D+02                  1337.6309    11.2455    10.9833
         ROT.     0.7982D+05                   775.0097     2.9808    25.4115
         INT.     0.1507D+07                  2112.6406    14.2263    36.3948
         TRA.     0.5862D+27                  1291.6828     4.9680    38.4503
         TOT.                       32.063    3404.3234    19.1943    74.8451

 270.00  VIB.     0.2086D+02                  1453.2652    11.8832    11.4196
         ROT.     0.8447D+05                   804.8177     2.9808    25.5240
         INT.     0.1762D+07                  2258.0829    14.8640    36.9436
         TRA.     0.6203D+27                  1341.3629     4.9680    38.6378
         TOT.                       32.258    3599.4458    19.8320    75.5815

 280.00  VIB.     0.2307D+02                  1575.3290    12.5311    11.8635
         ROT.     0.8921D+05                   834.6258     2.9808    25.6324
         INT.     0.2058D+07                  2409.9548    15.5119    37.4959
         TRA.     0.6551D+27                  1391.0430     4.9680    38.8185
         TOT.                       32.459    3800.9978    20.4799    76.3144

 290.00  VIB.     0.2554D+02                  1703.9139    13.1871    12.3146
         ROT.     0.9403D+05                   864.4339     2.9808    25.7370
         INT.     0.2402D+07                  2568.3478    16.1679    38.0516
         TRA.     0.6905D+27                  1440.7231     4.9680    38.9928
         TOT.                       32.667    4009.0709    21.1359    77.0445

 300.00  VIB.     0.2829D+02                  1839.0904    13.8491    12.7728
         ROT.     0.9894D+05                   894.2419     2.9808    25.8381
         INT.     0.2799D+07                  2733.3323    16.8299    38.6109
         TRA.     0.7265D+27                  1490.4032     4.9680    39.1613
         TOT.                       32.882    4223.7355    21.7979    77.7722

 310.00  VIB.     0.3137D+02                  1980.9087    14.5151    13.2378
         ROT.     0.1039D+06                   924.0500     2.9808    25.9358
         INT.     0.3260D+07                  2904.9587    17.4959    39.1736
         TRA.     0.7631D+27                  1540.0833     4.9680    39.3242
         TOT.                       33.103    4445.0420    22.4639    78.4978

 320.00  VIB.     0.3482D+02                  2129.4002    15.1834    13.7092
         ROT.     0.1090D+06                   953.8580     2.9808    26.0305
         INT.     0.3795D+07                  3083.2582    18.1642    39.7396
         TRA.     0.8003D+27                  1589.7634     4.9680    39.4819
         TOT.                       33.331    4673.0216    23.1322    79.2215

 330.00  VIB.     0.3868D+02                  2284.5783    15.8522    14.1866
         ROT.     0.1141D+06                   983.6661     2.9808    26.1222
         INT.     0.4414D+07                  3268.2444    18.8330    40.3088
         TRA.     0.8382D+27                  1639.4435     4.9680    39.6348
         TOT.                       33.566    4907.6879    23.8010    79.9436

 340.00  VIB.     0.4300D+02                  2446.4400    16.5199    14.6698
         ROT.     0.1194D+06                  1013.4742     2.9808    26.2112
         INT.     0.5133D+07                  3459.9141    19.5007    40.8809
         TRA.     0.8765D+27                  1689.1236     4.9680    39.7831
         TOT.                       33.807    5149.0378    24.4687    80.6640

 350.00  VIB.     0.4786D+02                  2614.9673    17.1851    15.1582
         ROT.     0.1247D+06                  1043.2822     2.9808    26.2976
         INT.     0.5966D+07                  3658.2496    20.1659    41.4558
         TRA.     0.9155D+27                  1738.8037     4.9680    39.9271
         TOT.                       34.055    5397.0533    25.1339    81.3829

 360.00  VIB.     0.5331D+02                  2790.1288    17.8465    15.6516
         ROT.     0.1301D+06                  1073.0903     2.9808    26.3815
         INT.     0.6933D+07                  3863.2191    20.8273    42.0332
         TRA.     0.9550D+27                  1788.4838     4.9680    40.0670
         TOT.                       34.310    5651.7030    25.7953    82.1002

 370.00  VIB.     0.5943D+02                  2971.8810    18.5030    16.1496
         ROT.     0.1355D+06                  1102.8984     2.9808    26.4632
         INT.     0.8054D+07                  4074.7793    21.4838    42.6128
         TRA.     0.9951D+27                  1838.1639     4.9680    40.2032
         TOT.                       34.571    5912.9433    26.4518    82.8160

 380.00  VIB.     0.6632D+02                  3160.1696    19.1536    16.6517
         ROT.     0.1410D+06                  1132.7064     2.9808    26.5427
         INT.     0.9355D+07                  4292.8760    22.1345    43.1944
         TRA.     0.1036D+28                  1887.8440     4.9680    40.3357
         TOT.                       34.839    6180.7201    27.1025    83.5300

 390.00  VIB.     0.7408D+02                  3354.9313    19.7975    17.1575
         ROT.     0.1466D+06                  1162.5145     2.9808    26.6201
         INT.     0.1086D+08                  4517.4458    22.7783    43.7777
         TRA.     0.1077D+28                  1937.5242     4.9680    40.4647
         TOT.                       35.113    6454.9700    27.7463    84.2424

 400.00  VIB.     0.8281D+02                  3556.0947    20.4339    17.6668
         ROT.     0.1523D+06                  1192.3226     2.9808    26.6956
         INT.     0.1261D+08                  4748.4173    23.4147    44.3624
         TRA.     0.1119D+28                  1987.2043     4.9680    40.5905
         TOT.                       35.394    6735.6216    28.3827    84.9529

   *: NOTE: HEATS OF FORMATION ARE RELATIVE TO THE
            ELEMENTS IN THEIR STANDARD STATE AT 298K
              (=  Standard Enthalpy of Formation).

            Hvib:  Zero-point energy is not included.
                   frequencies of less than zero cm-1 are not included.
            Hrot = (3/2)RT
            Htra = (3/2)RT + pV = (5/2)RT

            Heat capacity is Cp, not Cv

          For more information, see: HTTP://OpenMOPAC.net/Manual/thermochemistry.html


           FORCE CONSTANT IN CARTESIAN COORDINATES (Millidynes/A)

    ATOM   CHEMICAL       X               Y               Z
   NUMBER   SYMBOL  FORCE CONSTANT  FORCE CONSTANT  FORCE CONSTANT

      1       N       11.140882       12.256672        1.217236
      2       C        8.742177       11.313468        1.841763
      3       C       10.590638        9.115387        2.106310
      4       N        8.901178        8.597602        1.243802
      5       C       11.903670        7.611312        1.945556
      6       C        6.925870        7.157147        5.914639
      7       H        1.891153        3.191274        0.323853
      8       H        3.816087        1.240188        0.352127
      9       H        4.004320        1.047614        0.337009
     10       H        0.702594        1.811359        2.787442
     11       H        0.702594        1.811359        2.787442
     12       H        3.935306        0.916241        0.501714

 **********************
 *                    *
 * JOB ENDED NORMALLY *
 *                    *
 **********************



 TOTAL JOB TIME:             0.92 SECONDS

 == MOPAC DONE ==
